/*--------------------------------*- C++ -*----------------------------------*\
| =========                 |                                                 |
| \\      /  F ield         | OpenFOAM: The Open Source CFD Toolbox           |
|  \\    /   O peration     | Version:  v2012                                 |
|   \\  /    A nd           | Website:  www.openfoam.com                      |
|    \\/     M anipulation  |                                                 |
\*---------------------------------------------------------------------------*/
FoamFile
{
    version     2.0;
    format      ascii;
    class       surfaceScalarField;
    location    "0.2";
    object      phi;
}
// * * * * * * * * * * * * * * * * * * * * * * * * * * * * * * * * * * * * * //

dimensions      [0 3 -1 0 0 0 0];
oriented        oriented;


internalField   nonuniform List<scalar> 
1150
(
0.00173232
-3.07084e-06
0.00172841
3.91013e-06
0.00173012
-1.7058e-06
0.00172364
6.47534e-06
0.00172415
-5.07911e-07
0.00171439
9.7592e-06
0.00170996
4.42992e-06
0.00169174
1.8222e-05
0.00165409
3.76534e-05
0.000101603
0.00155248
0.0017942
-3.76804e-06
0.0017935
4.60965e-06
0.00179154
2.48714e-07
0.0017904
7.61986e-06
0.00178438
5.51102e-06
0.00178341
1.07341e-05
0.001767
2.08415e-05
0.00176248
2.27411e-05
0.00171337
8.67612e-05
0.000108976
0.001706
0.00185847
-2.09984e-06
0.00186042
2.6604e-06
0.00185593
4.74229e-06
0.00185758
5.96498e-06
0.00184924
1.38521e-05
0.00184936
1.06181e-05
0.0018342
3.60023e-05
0.00182482
3.21137e-05
0.00180318
0.000108402
0.00012785
0.00178431
0.00192705
1.07741e-07
0.00192875
9.54186e-07
0.00192501
8.48225e-06
0.00192521
5.76902e-06
0.0019195
1.9555e-05
0.00191567
1.44577e-05
0.00190742
4.42499e-05
0.00189366
4.58714e-05
0.00189016
0.000111905
0.000145741
0.00187227
0.00199937
1.6763e-06
0.00199966
6.64274e-07
0.00199767
1.04665e-05
0.00199583
7.60777e-06
0.00199286
2.25324e-05
0.00198666
2.06518e-05
0.0019827
4.8208e-05
0.00197034
5.82391e-05
0.00197164
0.000110597
0.000153991
0.00196339
0.00207449
2.46601e-06
0.00207367
1.48624e-06
0.00207291
1.12248e-05
0.00207012
1.03977e-05
0.00206854
2.41102e-05
0.00206236
2.68328e-05
0.00206016
5.04092e-05
0.00205151
6.6885e-05
0.00205345
0.000108658
0.000153843
0.0020536
0.00215212
2.73165e-06
0.00215081
2.8015e-06
0.00215058
1.14494e-05
0.00214782
1.31622e-05
0.00214678
2.51508e-05
0.00214184
3.1766e-05
0.00214039
5.1863e-05
0.00213552
7.17573e-05
0.00213782
0.000106359
0.00014838
0.00214328
0.00223236
2.72745e-06
0.00223102
4.14302e-06
0.00223092
1.15536e-05
0.00222869
1.5393e-05
0.00222788
2.59589e-05
0.00222455
3.50939e-05
0.00222368
5.27338e-05
0.00222193
7.35087e-05
0.00222505
0.000103238
0.000140051
0.00223338
0.00231541
2.61641e-06
0.00231431
5.24743e-06
0.00231418
1.16796e-05
0.00231265
1.69251e-05
0.00231208
2.65263e-05
0.00231028
3.68938e-05
0.00231015
5.2864e-05
0.00231077
7.28917e-05
0.00231504
9.89636e-05
0.00013035
0.00232475
0.00240146
2.48272e-06
0.0024007
6.00632e-06
0.00240058
1.17998e-05
0.00239973
1.77724e-05
0.00239954
2.67248e-05
0.00239904
3.73885e-05
0.00239984
5.20654e-05
0.0024022
7.0531e-05
0.00240769
9.34708e-05
0.000120004
0.00241804
0.00249068
2.35517e-06
0.00249027
6.41206e-06
0.00249026
1.18133e-05
0.00249002
1.8008e-05
0.00249032
2.64266e-05
0.00249091
3.67937e-05
0.00249273
5.02507e-05
0.00249641
6.68546e-05
0.00250299
8.68839e-05
0.000109281
0.00251372
0.00258321
2.23054e-06
0.00258312
6.50425e-06
0.00258331
1.1617e-05
0.00258362
1.76996e-05
0.00258449
2.55549e-05
0.00258602
3.52696e-05
0.00258883
4.74422e-05
0.00259355
6.21259e-05
0.00260104
7.93943e-05
9.82561e-05
0.00261207
0.0026792
2.09264e-06
0.00267937
6.33093e-06
0.00267985
1.11414e-05
0.00268065
1.68919e-05
0.00268212
2.40867e-05
0.00268446
3.2929e-05
0.00268818
4.37269e-05
0.00269379
5.65095e-05
0.00270201
7.11786e-05
8.69519e-05
0.00271331
0.00277877
1.92451e-06
0.00277917
5.93038e-06
0.00277995
1.03556e-05
0.00278123
1.56138e-05
0.00278328
2.20359e-05
0.00278636
2.98575e-05
0.00279087
3.92103e-05
0.00279726
5.01231e-05
0.00280607
6.2367e-05
7.53833e-05
0.00281764
0.00288205
1.71411e-06
0.00288265
5.32879e-06
0.00288375
9.25808e-06
0.00288547
1.3891e-05
0.00288807
1.94365e-05
0.0028918
2.61288e-05
0.00289702
3.39914e-05
0.00290408
4.30626e-05
0.0029134
5.30461e-05
6.35611e-05
0.00292522
0.00298917
1.45562e-06
0.00298996
4.54506e-06
0.00299135
7.86515e-06
0.00299349
1.17547e-05
0.00299659
1.63331e-05
0.00300091
2.18119e-05
0.00300674
2.81556e-05
0.00301439
3.54092e-05
0.00302417
4.32697e-05
5.14846e-05
0.00303625
0.00310027
1.14861e-06
0.00310122
3.59658e-06
0.00310288
6.20311e-06
0.00310539
9.24452e-06
0.00310895
1.27761e-05
0.00311379
1.69737e-05
0.00312017
2.17757e-05
0.00312835
2.72302e-05
0.00313855
3.30698e-05
3.91364e-05
0.0031509
0.0032155
7.97029e-07
0.00321659
2.503e-06
0.00321849
4.30576e-06
0.00322133
6.40813e-06
0.00322528
8.82219e-06
0.00323057
1.16803e-05
0.00323743
1.49163e-05
0.00324608
1.85788e-05
0.00325669
2.24618e-05
2.64824e-05
0.00326935
0.00333499
4.0865e-07
0.00333621
1.28861e-06
0.0033383
2.21507e-06
0.0033414
3.30248e-06
0.00334569
4.53497e-06
0.00335137
5.99952e-06
0.00335865
7.63756e-06
0.00336773
9.49748e-06
0.00337875
1.14472e-05
1.3472e-05
0.00339176
0.00345891
0.0034602
0.00346242
0.00346572
0.00347025
0.00347625
0.00348389
0.00349339
0.00350483
0.00351831
0.00117123
0.000381257
0.000831285
0.000339941
0.00060757
0.000223715
0.000473465
0.000134105
0.000397074
7.6391e-05
0.000353506
4.35683e-05
0.000326667
2.68392e-05
0.00030777
1.88964e-05
0.000292925
1.4846e-05
0.000280524
1.24003e-05
0.000269985
1.05396e-05
0.000260841
9.14356e-06
0.000252912
7.92867e-06
0.000245812
7.09995e-06
0.000239533
6.27929e-06
0.00023367
5.86296e-06
0.000228427
5.24296e-06
0.000223243
5.18464e-06
0.000218607
4.63512e-06
5.64093e-06
0.00171255
0.000374702
0.00159833
0.000454157
0.00144911
0.00037294
0.00130833
0.000274886
0.00118591
0.000198806
0.00108513
0.000144347
0.00100544
0.000106539
0.000943273
8.10589e-05
0.000894067
6.40517e-05
0.000854159
5.23086e-05
0.000820796
4.39024e-05
0.000792399
3.75404e-05
0.000767658
3.26695e-05
0.00074595
2.88084e-05
0.000726448
2.57808e-05
0.000708937
2.33739e-05
0.000692736
2.1444e-05
0.000677862
2.00592e-05
0.000663568
1.89286e-05
1.92405e-05
0.00184735
0.000311657
0.00186829
0.000433218
0.00183506
0.000406173
0.00177775
0.000332195
0.00170994
0.000266611
0.00163848
0.000215809
0.00156863
0.000176389
0.00150431
0.000145379
0.00144649
0.000121872
0.00139538
0.000103417
0.00134982
8.94675e-05
0.00130953
7.78251e-05
0.00127318
6.90206e-05
0.00124085
6.11412e-05
0.00121111
5.5522e-05
0.00118447
5.00144e-05
0.00115931
4.66052e-05
0.00113658
4.27812e-05
0.00111438
4.11295e-05
3.9263e-05
0.00191835
0.000265569
0.00197214
0.000379427
0.0019928
0.000385513
0.00199008
0.000334915
0.00197377
0.000282926
0.00194776
0.000241817
0.00191461
0.000209546
0.00187816
0.000181824
0.00184043
0.000159598
0.00180347
0.000140384
0.00176724
0.000125699
0.00173288
0.000112182
0.00169966
0.000102239
0.00166868
9.21252e-05
0.00163875
8.54534e-05
0.00161107
7.76876e-05
0.00158408
7.35959e-05
0.00155918
6.76846e-05
0.00153449
6.5814e-05
6.18619e-05
0.00199321
0.000235756
0.00204456
0.000328078
0.00207962
0.000350449
0.00209727
0.000317267
0.00210499
0.0002752
0.00210588
0.000240928
0.00210005
0.000215382
0.00208939
0.000192477
0.002075
0.000173996
0.00205873
0.000156653
0.00204062
0.000143802
0.00202188
0.000130927
0.00200205
0.000122065
0.00198225
0.000111923
0.00196186
0.000105849
0.00194188
9.76609e-05
0.00192158
9.39015e-05
0.00190183
8.74377e-05
0.00188189
8.57453e-05
8.11784e-05
0.00207509
0.000214266
0.0021182
0.000284966
0.0021546
0.000314048
0.00217752
0.000294352
0.00219243
0.000260287
0.00220334
0.000230019
0.00221014
0.00020858
0.00221336
0.000189257
0.0022134
0.000173956
0.00221141
0.000158651
0.00220753
0.000147679
0.00220232
0.000136134
0.00219571
0.000128677
0.00218804
0.000119595
0.00217938
0.000114506
0.00216985
0.000107193
0.00215973
0.000104023
0.00214879
9.83736e-05
0.00213762
9.69161e-05
9.31549e-05
0.00216113
0.000196415
0.00219654
0.000249557
0.00223117
0.000279413
0.0022554
0.000270125
0.00227204
0.000243645
0.00228545
0.000216611
0.00229653
0.000197497
0.00230517
0.000180615
0.00231168
0.00016745
0.00231648
0.000153846
0.00232016
0.000144005
0.00232261
0.000133685
0.00232426
0.000127026
0.00232467
0.000119185
0.00232451
0.000114663
0.00232309
0.000108617
0.00232136
0.000105746
0.00231834
0.000101398
0.00231524
0.000100011
9.75327e-05
0.00224987
0.000179921
0.00227914
0.000220288
0.00231106
0.000247496
0.00233566
0.000245521
0.00235315
0.00022616
0.00236708
0.000202677
0.00237943
0.000185146
0.00238993
0.000170119
0.00239896
0.000158417
0.00240644
0.000146366
0.00241329
0.000137162
0.00241908
0.000127886
0.00242461
0.000121502
0.00242907
0.00011472
0.00243339
0.000110349
0.0024366
0.00010541
0.00243978
0.000102563
0.00244185
9.93304e-05
0.00244396
9.7896e-05
9.64551e-05
0.00234078
0.00016389
0.00236564
0.000195421
0.00239452
0.000218618
0.00241893
0.000221114
0.0024372
0.000207886
0.00245151
0.000188367
0.00246435
0.000172305
0.00247565
0.000158825
0.00248582
0.000148239
0.00249451
0.000137683
0.00250265
0.000129021
0.00250985
0.000120685
0.00251693
0.00011442
0.00252319
0.000108464
0.00252941
0.000104122
0.00253484
9.99826e-05
0.0025403
9.71075e-05
0.00254502
9.46075e-05
0.00254978
9.31314e-05
9.22995e-05
0.0024338
0.000148134
0.00245574
0.000173477
0.00248173
0.000192631
0.00250544
0.000197398
0.00252434
0.000188991
0.00253919
0.000173513
0.00255239
0.000159104
0.00256423
0.000146989
0.00257513
0.000137342
0.00258464
0.000128168
0.00259351
0.000120149
0.00260151
0.000112693
0.0026093
0.000106629
0.00261644
0.000101316
0.00262349
9.70734e-05
0.00262999
9.34866e-05
0.00263643
9.06669e-05
0.00264243
8.86022e-05
0.00264842
8.71501e-05
8.66153e-05
0.00252916
0.000132687
0.0025492
0.000153435
0.00257274
0.000169093
0.00259546
0.000174681
0.00261469
0.000169764
0.00263018
0.000158015
0.00264378
0.000145505
0.0026561
0.000134675
0.00266756
0.00012588
0.00267781
0.000117918
0.00268729
0.000110665
0.00269594
0.000104048
0.00270423
9.83356e-05
0.002712
9.3552e-05
0.00271955
8.9523e-05
0.00272669
8.63435e-05
0.00273368
8.36778e-05
0.00274039
8.18897e-05
0.00274702
8.05224e-05
8.01273e-05
0.00262718
0.000117578
0.00264594
0.000134671
0.00266756
0.000147471
0.00268919
0.000153054
0.00270847
0.000150487
0.00272458
0.000141899
0.00273866
0.000131429
0.00275144
0.000121893
0.0027634
0.000113926
0.00277431
0.000107003
0.0027844
0.00010058
0.00279366
9.47789e-05
0.00280245
8.95505e-05
0.00281075
8.52483e-05
0.00281876
8.152e-05
0.00282642
7.86796e-05
0.00283386
7.62336e-05
0.0028411
7.46576e-05
0.00284821
7.34109e-05
7.30924e-05
0.00272812
0.000102776
0.00274598
0.00011681
0.00276617
0.000127278
0.00278678
0.000132441
0.00280591
0.000131356
0.00282254
0.000125273
0.00283715
0.00011682
0.00285042
0.000108619
0.00286284
0.000101506
0.00287436
9.54884e-05
0.00288503
8.99038e-05
0.00289491
8.48977e-05
0.00290422
8.02479e-05
0.00291304
7.64231e-05
0.00292151
7.30527e-05
0.00292966
7.05277e-05
0.00293756
6.83358e-05
0.00294526
6.69522e-05
0.00295283
6.58433e-05
6.55792e-05
0.00283221
8.82051e-05
0.00284941
9.96049e-05
0.00286857
0.000108117
0.00288835
0.00011267
0.00290724
0.000112459
0.00292425
0.000108262
0.00293941
0.000101661
0.00295321
9.48185e-05
0.0029661
8.86155e-05
0.00297817
8.34248e-05
0.00298942
7.86537e-05
0.0029999
7.44194e-05
0.00300974
7.04058e-05
0.00301908
6.70775e-05
0.00302803
6.41052e-05
0.00303666
6.18942e-05
0.00304503
5.99742e-05
0.0030532
5.87797e-05
0.00306122
5.78171e-05
5.75993e-05
0.00293966
7.37712e-05
0.0029564
8.28598e-05
0.00297484
8.96745e-05
0.00299398
9.35338e-05
0.00301265
9.37898e-05
0.00302995
9.09634e-05
0.00304564
8.59701e-05
0.00305999
8.04622e-05
0.00307338
7.52291e-05
0.00308597
7.08398e-05
0.00309777
6.68524e-05
0.00310882
6.33626e-05
0.00311922
6.00137e-05
0.00312909
5.72069e-05
0.00313853
5.46655e-05
0.00314764
5.27784e-05
0.00315647
5.11425e-05
0.00316512
5.01382e-05
0.00317361
4.9327e-05
4.91516e-05
0.00305064
5.93742e-05
0.0030671
6.64006e-05
0.00308509
7.16933e-05
0.0031038
7.48214e-05
0.00312231
7.52746e-05
0.00313985
7.34229e-05
0.00315605
6.97755e-05
0.00317098
6.55332e-05
0.00318489
6.13155e-05
0.00319799
5.77394e-05
0.00321032
5.45192e-05
0.00322194
5.17475e-05
0.00323288
4.90713e-05
0.00324328
4.68074e-05
0.00325322
4.47258e-05
0.00326282
4.31784e-05
0.00327212
4.18384e-05
0.00328124
4.10267e-05
0.00329019
4.03713e-05
4.02353e-05
0.00316536
4.49131e-05
0.0031817
5.00608e-05
0.00319944
5.39503e-05
0.00321794
5.63253e-05
0.00323642
5.67962e-05
0.00325421
5.56314e-05
0.00327089
5.30964e-05
0.00328639
5.00252e-05
0.00330086
4.68469e-05
0.00331449
4.41162e-05
0.00332734
4.16655e-05
0.00333949
3.95933e-05
0.00335098
3.75864e-05
0.00336191
3.5879e-05
0.00337235
3.42827e-05
0.00338243
3.30939e-05
0.00339221
3.20638e-05
0.00340179
3.14482e-05
0.00341121
3.0952e-05
3.08529e-05
0.00328398
3.02821e-05
0.00330036
3.36737e-05
0.00331808
3.62358e-05
0.00333656
3.78396e-05
0.00335515
3.82078e-05
0.00337325
3.75316e-05
0.00339042
3.59268e-05
0.00340651
3.39345e-05
0.00342156
3.18033e-05
0.00343572
2.9957e-05
0.00344909
2.82945e-05
0.00346176
2.69152e-05
0.00347378
2.55708e-05
0.00348523
2.44282e-05
0.00349618
2.33379e-05
0.00350674
2.25291e-05
0.00351698
2.18234e-05
0.00352702
2.14107e-05
0.00353689
2.10755e-05
2.10114e-05
0.00340668
1.53646e-05
0.00342328
1.70653e-05
0.00344118
1.83359e-05
0.00345987
1.91509e-05
0.00347874
1.93375e-05
0.00349725
1.9027e-05
0.00351494
1.82313e-05
0.00353162
1.72535e-05
0.00354726
1.61718e-05
0.00356196
1.52515e-05
0.00357585
1.4402e-05
0.00358904
1.37244e-05
0.00360158
1.30355e-05
0.00361354
1.24703e-05
0.00362498
1.18979e-05
0.00363601
1.14976e-05
0.00364671
1.11224e-05
0.00365719
1.09312e-05
0.00366751
1.07513e-05
1.07237e-05
0.00353367
0.00355074
0.00356907
0.00358822
0.00360756
0.00362659
0.00364482
0.00366207
0.00367824
0.0036935
0.0037079
0.00372162
0.00373466
0.00374713
0.00375903
0.00377052
0.00378165
0.00379258
0.00380333
)
;

boundaryField
{
    top
    {
        type            symmetryPlane;
        value           uniform 0;
    }
    bottom
    {
        type            symmetryPlane;
        value           uniform 0;
    }
    plate
    {
        type            calculated;
        value           uniform 0;
    }
    left
    {
        type            calculated;
        value           nonuniform List<scalar> 
20
(
-0.00172925
-0.0017935
-0.00186014
-0.00192925
-0.00200093
-0.00207528
-0.00215239
-0.00223236
-0.0023153
-0.00240133
-0.00249055
-0.00258308
-0.00267906
-0.0027786
-0.00288184
-0.00298891
-0.00309997
-0.00321515
-0.00333461
-0.0034585
)
;
    }
    right
    {
        type            calculated;
        value           nonuniform List<scalar> 
20
(
0.000212967
0.000649969
0.00109436
0.0015119
0.00186258
0.00212564
0.00231087
0.00244504
0.00255394
0.0026541
0.00275351
0.00285524
0.00296035
0.0030692
0.00318205
0.00329911
0.00342059
0.00354674
0.0036778
0.00381405
)
;
    }
    frontAndBack
    {
        type            empty;
        value           nonuniform List<scalar> 0();
    }
}


// ************************************************************************* //
