/*--------------------------------*- C++ -*----------------------------------*\
| =========                 |                                                 |
| \\      /  F ield         | OpenFOAM: The Open Source CFD Toolbox           |
|  \\    /   O peration     | Version:  v2012                                 |
|   \\  /    A nd           | Website:  www.openfoam.com                      |
|    \\/     M anipulation  |                                                 |
\*---------------------------------------------------------------------------*/
FoamFile
{
    version     2.0;
    format      ascii;
    class       volScalarField;
    location    "0.1";
    object      p;
}
// * * * * * * * * * * * * * * * * * * * * * * * * * * * * * * * * * * * * * //

dimensions      [0 2 -2 0 0 0 0];


internalField   nonuniform List<scalar> 
9600
(
28.538
28.6145
28.6491
28.6573
28.6522
28.6477
28.6477
28.6608
28.6814
28.713
28.7474
28.787
28.823
28.8639
28.9046
28.9542
29.0068
29.0689
29.1368
29.215
29.3019
29.398
29.5023
29.6166
29.744
29.8904
30.054
30.2429
30.4527
30.6975
30.9711
31.2976
31.669
32.1213
32.6474
33.3104
34.1108
35.1479
36.4347
38.029
28.5708
28.6046
28.6304
28.6425
28.65
28.6499
28.6555
28.6629
28.6845
28.7111
28.7485
28.7836
28.8243
28.8608
28.9064
28.9513
29.0085
29.066
29.1379
29.2122
29.3025
29.3952
29.5024
29.6136
29.7439
29.887
30.0532
30.2383
30.4517
30.6912
30.9698
31.2889
31.6682
32.1104
32.6454
33.2812
34.0613
34.9591
35.9827
36.9511
28.5867
28.5985
28.6174
28.6316
28.6463
28.6516
28.6602
28.6663
28.6865
28.7105
28.7478
28.7813
28.8231
28.8586
28.9056
28.9496
29.0077
29.064
29.1366
29.2097
29.3008
29.3921
29.5002
29.6101
29.741
29.8835
30.0494
30.2336
30.4464
30.6855
30.9625
31.2819
31.6549
32.0915
32.6094
33.2128
33.9144
34.6887
35.5033
36.2342
28.5966
28.5967
28.6103
28.6242
28.6414
28.6504
28.6607
28.6686
28.6875
28.7111
28.7461
28.78
28.8205
28.8571
28.903
28.9481
29.0053
29.0618
29.1342
29.2061
29.2983
29.3872
29.4967
29.6034
29.7364
29.8734
30.044
30.2242
30.4387
30.6738
30.9504
31.2646
31.6301
32.0553
32.5447
33.1086
33.7301
34.4083
35.0717
35.6733
28.6017
28.5959
28.6069
28.6188
28.6367
28.6466
28.6593
28.6685
28.688
28.7106
28.745
28.7781
28.8182
28.8544
28.9003
28.9452
29.0024
29.0586
29.1307
29.2024
29.2937
29.3824
29.4905
29.598
29.7283
29.8672
30.0334
30.2155
30.4243
30.6611
30.9289
31.2417
31.591
32.0045
32.4567
32.9829
33.5308
34.1267
34.6761
35.1698
28.6022
28.5953
28.6049
28.615
28.6334
28.6427
28.6574
28.6664
28.6878
28.7088
28.7443
28.7751
28.8165
28.8502
28.8976
28.9403
28.999
29.0542
29.1261
29.1982
29.2872
29.3777
29.4818
29.5925
29.717
29.8602
30.0183
30.2053
30.4041
30.6449
30.8986
31.211
31.5386
31.9387
32.3535
32.8409
33.325
33.8461
34.3071
34.7085
28.6047
28.592
28.6015
28.6115
28.6313
28.6396
28.655
28.6634
28.6857
28.7067
28.7421
28.7728
28.8132
28.8476
28.8929
28.9373
28.993
29.0507
29.1189
29.1943
29.2781
29.3729
29.4706
29.586
29.7031
29.8507
30.0007
30.1907
30.3811
30.6213
30.8646
31.1688
31.4802
31.8577
32.243
32.6845
33.1193
33.5683
33.9625
34.2831
28.6096
28.5856
28.5957
28.6074
28.6299
28.6379
28.6521
28.6603
28.6817
28.7045
28.7381
28.7712
28.8081
28.846
28.8866
28.935
28.9848
29.0473
29.1093
29.1897
29.2673
29.3663
29.4585
29.5765
29.6889
29.8368
29.9829
30.1701
30.357
30.5896
30.8275
31.1159
31.4159
31.7637
32.1258
32.5187
32.9137
33.2964
33.6391
33.8911
28.6156
28.5793
28.5867
28.6028
28.6272
28.6391
28.649
28.6585
28.6757
28.7025
28.7322
28.7698
28.8017
28.8443
28.8793
28.9317
28.9761
29.0421
29.0999
29.1822
29.2573
29.3563
29.4474
29.5628
29.6755
29.818
29.9649
30.1437
30.331
30.5507
30.7859
31.0542
31.3443
31.6615
32.0013
32.3496
32.7079
33.0338
33.3322
33.5302
28.6196
28.5756
28.5751
28.5972
28.6223
28.641
28.6461
28.6577
28.6675
28.6991
28.7248
28.7672
28.7954
28.8409
28.8729
28.9261
28.9691
29.0339
29.092
29.1715
29.2483
29.3429
29.4367
29.5457
29.6615
29.7954
29.945
30.113
30.3008
30.5069
30.7377
30.9874
31.2645
31.5551
31.8699
32.1808
32.502
32.7816
33.0385
33.1965
28.6171
28.5772
28.5665
28.5903
28.6145
28.6415
28.6447
28.6576
28.6618
28.6935
28.7178
28.7621
28.791
28.8353
28.8681
28.918
28.9632
29.0233
29.0847
29.1582
29.2392
29.3269
29.4249
29.5264
29.645
29.771
29.921
30.0805
30.2648
30.4607
30.6823
30.9174
31.1773
31.4456
31.7334
32.0126
32.2975
32.5396
32.7569
32.8854
28.6061
28.583
28.5649
28.583
28.6038
28.6371
28.6441
28.6575
28.6589
28.686
28.711
28.7539
28.7872
28.8278
28.864
28.908
28.9569
29.011
29.0764
29.1438
29.2283
29.3102
29.4103
29.5064
29.6246
29.746
29.892
30.0468
30.2232
30.412
30.6207
30.8437
31.0844
31.3328
31.5939
31.8449
32.0961
32.3065
32.4875
32.5923
28.5898
28.5883
28.5701
28.5775
28.5927
28.6275
28.6426
28.6565
28.659
28.6778
28.7042
28.7432
28.7822
28.8194
28.8596
28.8979
28.9491
28.9984
29.0657
29.1295
29.2147
29.2938
29.3924
29.4865
29.6003
29.7201
29.859
30.0111
30.1772
30.3598
30.5547
30.7656
30.988
31.2167
31.4533
31.6782
31.8983
32.0815
32.2298
32.3143
28.5736
28.5889
28.5779
28.5753
28.5838
28.6136
28.637
28.6537
28.6604
28.6717
28.6973
28.7312
28.7744
28.8104
28.8538
28.889
28.94
28.986
29.0525
29.115
29.1983
29.2776
29.3717
29.466
29.5729
29.6923
29.8228
29.972
30.1283
30.3032
30.486
30.6831
30.8891
31.098
31.3121
31.513
31.7045
31.8637
31.9833
32.0493
28.5618
28.5842
28.583
28.5757
28.5783
28.5988
28.6275
28.648
28.6609
28.6685
28.6909
28.7196
28.7637
28.8006
28.8459
28.8809
28.9297
28.974
29.0371
29.1001
29.1796
29.2605
29.3491
29.4441
29.5436
29.6615
29.7846
29.9289
30.0774
30.2425
30.4149
30.5971
30.788
30.9779
31.1704
31.3499
31.515
31.6525
31.7475
31.7954
28.555
28.5748
28.5817
28.5767
28.5762
28.5877
28.615
28.639
28.6582
28.6671
28.6857
28.7094
28.7509
28.7892
28.8359
28.8728
28.9189
28.9623
29.0202
29.0839
29.1588
29.2418
29.3252
29.42
29.5136
29.6275
29.745
29.8819
30.0245
30.1784
30.3413
30.5086
30.6845
30.8572
31.0287
31.1889
31.3301
31.4474
31.5217
31.552
28.5525
28.5638
28.5746
28.5754
28.5758
28.5812
28.6024
28.6273
28.6514
28.6649
28.6815
28.7011
28.7378
28.7762
28.8233
28.8634
28.9075
28.9508
29.0029
29.0664
29.1367
29.2204
29.3005
29.3932
29.4831
29.5906
29.7038
29.8318
29.9688
30.1118
30.2647
30.4189
30.579
30.7361
30.8878
31.0297
31.1503
31.2476
31.305
31.3183
28.5503
28.5541
28.5639
28.5708
28.5744
28.5786
28.5924
28.6146
28.6411
28.6598
28.6776
28.6944
28.7257
28.7622
28.8085
28.852
28.8949
28.939
28.9857
29.0475
29.1138
29.196
29.2749
29.3638
29.4518
29.5515
29.6606
29.7795
29.9098
30.0435
30.1854
30.3281
30.4723
30.6148
30.7482
30.8722
30.9752
31.0534
31.0965
31.0941
28.547
28.5467
28.5529
28.5632
28.5705
28.5764
28.5854
28.6028
28.6285
28.6512
28.6724
28.6887
28.7151
28.7484
28.792
28.8383
28.881
28.9262
28.9691
29.0275
29.0904
29.169
29.2477
29.3322
29.4187
29.5112
29.6151
29.7258
29.8479
29.9734
30.1039
30.2359
30.3655
30.4931
30.6105
30.7167
30.8043
30.8649
30.8948
30.8793
28.5415
28.5409
28.5435
28.5537
28.5639
28.5724
28.5806
28.593
28.6159
28.6397
28.6644
28.6827
28.7054
28.7356
28.7747
28.8223
28.8654
28.9116
28.9529
29.0064
29.0667
29.1401
29.2185
29.2989
29.3832
29.4701
29.5673
29.671
29.7835
29.9014
30.0209
30.1422
30.259
30.3715
30.4748
30.5636
30.6372
30.6821
30.6992
30.6731
28.5337
28.5354
28.5362
28.5438
28.5553
28.5659
28.5759
28.5849
28.6042
28.6269
28.6535
28.6752
28.6962
28.7238
28.7579
28.8044
28.8481
28.8947
28.9363
28.985
29.0425
29.1102
29.187
29.264
29.3452
29.4279
29.5177
29.6149
29.7177
29.8273
29.9368
30.0471
30.1527
30.2505
30.3406
30.4137
30.4734
30.5049
30.5095
30.4747
28.5248
28.5292
28.5304
28.5344
28.5457
28.5573
28.5698
28.5779
28.5934
28.6142
28.6404
28.6655
28.6863
28.7122
28.7422
28.7853
28.8295
28.8753
28.9184
28.9632
29.0177
29.0801
29.1532
29.2279
29.3048
29.3842
29.4668
29.5572
29.6512
29.7512
29.8521
29.951
30.0464
30.1307
30.2079
30.2672
30.3128
30.333
30.3253
30.283
28.5157
28.5216
28.5249
28.5259
28.5356
28.5471
28.5616
28.5711
28.5834
28.6022
28.6262
28.6537
28.6753
28.7002
28.7275
28.7659
28.8097
28.8541
28.8985
28.9409
28.9919
29.0499
29.1178
29.19
29.2624
29.3385
29.4148
29.498
29.5841
29.674
29.7664
29.8542
29.94
30.0124
30.0768
30.1238
30.1557
30.1657
30.1468
30.0975
28.507
28.5126
28.5183
28.5183
28.5256
28.5363
28.5515
28.5635
28.5738
28.5906
28.6121
28.6398
28.6632
28.687
28.7131
28.7468
28.789
28.8318
28.8761
28.9178
28.9651
29.0196
29.0815
29.1505
29.2186
29.2906
29.362
29.4375
29.5164
29.5961
29.6797
29.7575
29.8333
29.8956
29.9475
29.9835
30.0025
30.0025
29.9738
29.9174
28.4988
28.5026
28.5099
28.5111
28.5159
28.5256
28.5399
28.5544
28.5642
28.5791
28.5983
28.6246
28.6498
28.6726
28.6982
28.7281
28.7676
28.8088
28.8517
28.8934
28.9372
28.9887
29.0449
29.1094
29.1736
29.2407
29.308
29.376
29.448
29.5181
29.5925
29.661
29.7264
29.7799
29.8202
29.8461
29.8531
29.8434
29.806
29.7426
28.4908
28.4924
28.4998
28.5035
28.5066
28.5151
28.5276
28.5436
28.5545
28.5674
28.5849
28.6086
28.6349
28.6574
28.6821
28.7096
28.7457
28.7854
28.8259
28.8672
28.9082
28.9567
29.0082
29.0671
29.1274
29.1892
29.2525
29.3138
29.3787
29.4402
29.505
29.5647
29.62
29.6651
29.695
29.7113
29.7076
29.6884
29.6431
29.5729
28.4824
28.4826
28.4886
28.4948
28.4976
28.5046
28.5153
28.5313
28.544
28.5555
28.5715
28.5925
28.6187
28.6414
28.6648
28.6909
28.7232
28.7615
28.7993
28.8393
28.8782
28.9232
28.9712
29.0241
29.0802
29.1364
29.1955
29.2509
29.3087
29.3626
29.4175
29.4689
29.5143
29.5512
29.5719
29.5791
29.5661
29.5373
29.4849
29.4082
28.4733
28.473
28.477
28.4846
28.4883
28.4942
28.5034
28.5179
28.5324
28.5434
28.558
28.5764
28.6014
28.6246
28.6467
28.6715
28.7005
28.7368
28.7723
28.8101
28.8471
28.8885
28.9334
28.9808
29.0322
29.0828
29.137
29.1873
29.2381
29.2849
29.3304
29.3736
29.4095
29.4383
29.4506
29.4493
29.428
29.3902
29.3312
29.2481
28.4632
28.4635
28.4659
28.4731
28.4784
28.4836
28.4917
28.5041
28.5193
28.5308
28.544
28.5606
28.5832
28.6069
28.6279
28.6514
28.6775
28.7112
28.7449
28.7799
28.8149
28.8526
28.8946
28.9372
28.9835
29.0287
29.0773
29.1228
29.167
29.2072
29.244
29.2789
29.3059
29.3266
29.3311
29.3219
29.2932
29.2472
29.1817
29.0927
28.4524
28.4535
28.4552
28.4611
28.4675
28.4726
28.48
28.4904
28.5052
28.5174
28.5297
28.5448
28.5647
28.5881
28.6084
28.6305
28.6542
28.6847
28.7169
28.7489
28.7817
28.8156
28.8545
28.8931
28.9342
28.9743
29.0167
29.0576
29.0955
29.1296
29.1582
29.1849
29.2037
29.2162
29.2136
29.1967
29.1615
29.108
29.0364
28.9418
28.4412
28.4428
28.4447
28.449
28.4557
28.4611
28.468
28.477
28.4903
28.5032
28.5148
28.5287
28.546
28.5683
28.5882
28.6088
28.6305
28.6577
28.688
28.7174
28.7477
28.7781
28.8133
28.8483
28.8846
28.9196
28.9558
28.9916
29.0237
29.052
29.0731
29.0919
29.1029
29.1073
29.098
29.0737
29.0327
28.9724
28.8951
28.7955
28.43
28.4313
28.4338
28.4371
28.4432
28.449
28.4554
28.4637
28.4751
28.4881
28.4993
28.5123
28.5274
28.5478
28.5672
28.5863
28.6064
28.6302
28.6583
28.6854
28.713
28.74
28.7711
28.8028
28.8346
28.8647
28.8947
28.9251
28.9517
28.9743
28.9888
28.9999
29.0034
29
28.9844
28.9532
28.9066
28.8402
28.7576
28.6535
28.4186
28.4194
28.4221
28.4253
28.4305
28.4363
28.4423
28.4501
28.4599
28.4722
28.4831
28.4952
28.5088
28.5268
28.5455
28.5632
28.5817
28.6024
28.6278
28.6526
28.6776
28.7014
28.7283
28.7565
28.784
28.8097
28.8337
28.8583
28.8795
28.8967
28.9053
28.9089
28.9054
28.8945
28.8727
28.8351
28.7829
28.7113
28.6237
28.5156
28.4071
28.4073
28.4097
28.4133
28.4175
28.4231
28.4286
28.436
28.4447
28.4559
28.4664
28.4775
28.4899
28.5055
28.5229
28.5394
28.5563
28.5743
28.5967
28.6192
28.6415
28.6624
28.685
28.7095
28.7329
28.7545
28.7729
28.7917
28.8074
28.8191
28.8224
28.819
28.8088
28.7908
28.7629
28.7195
28.6618
28.5856
28.4932
28.3816
28.3951
28.3951
28.3969
28.4007
28.4045
28.4097
28.4146
28.4213
28.4293
28.4392
28.4492
28.4592
28.4705
28.484
28.4999
28.515
28.5302
28.5459
28.5652
28.5852
28.6049
28.6229
28.6415
28.6619
28.6813
28.6989
28.7124
28.7253
28.7354
28.7418
28.7401
28.7304
28.7138
28.6889
28.6552
28.6063
28.5433
28.4628
28.3659
28.2513
28.3825
28.3828
28.3838
28.3874
28.3912
28.3959
28.4004
28.4061
28.4135
28.4223
28.4315
28.4405
28.4505
28.4624
28.4763
28.49
28.5035
28.5171
28.5333
28.5507
28.5676
28.583
28.5977
28.614
28.6294
28.643
28.6521
28.6593
28.6639
28.6648
28.6584
28.643
28.6202
28.5889
28.5494
28.4955
28.4275
28.3429
28.2418
28.1244
28.3695
28.3704
28.3708
28.3737
28.3775
28.3818
28.386
28.3905
28.3973
28.4051
28.4135
28.4214
28.4301
28.4404
28.4524
28.4646
28.4763
28.4878
28.5012
28.5158
28.53
28.5426
28.5538
28.566
28.5773
28.5868
28.5919
28.5937
28.5929
28.5883
28.5772
28.5567
28.5283
28.4909
28.4455
28.3871
28.3143
28.2259
28.1208
28.0006
28.356
28.3574
28.3579
28.3597
28.3634
28.3672
28.3713
28.3749
28.3805
28.3875
28.395
28.402
28.4092
28.418
28.4282
28.4388
28.4487
28.4581
28.4688
28.4806
28.4919
28.5018
28.5097
28.5179
28.5251
28.5306
28.5317
28.5287
28.5226
28.5125
28.4968
28.4715
28.4378
28.3948
28.3438
28.2809
28.2037
28.1117
28.0029
27.8799
28.3423
28.344
28.3449
28.3457
28.3488
28.3523
28.3562
28.3592
28.3635
28.3695
28.3761
28.3823
28.3881
28.3951
28.4037
28.4125
28.4207
28.428
28.4361
28.4451
28.4536
28.4607
28.4654
28.4698
28.473
28.4744
28.4717
28.4642
28.4531
28.4377
28.4171
28.3874
28.3488
28.3008
28.2441
28.177
28.0956
28.0002
27.8881
27.7621
28.3285
28.3301
28.3315
28.3316
28.3339
28.337
28.3406
28.3433
28.3463
28.3512
28.3568
28.3623
28.3668
28.372
28.3788
28.3859
28.3925
28.3976
28.4031
28.4094
28.4151
28.4194
28.421
28.4217
28.421
28.4183
28.4119
28.4001
28.3844
28.3638
28.3384
28.3045
28.2613
28.2086
28.1467
28.0753
27.9901
27.8913
27.7765
27.6474
28.3147
28.3159
28.3175
28.3176
28.319
28.3214
28.3246
28.3272
28.329
28.3327
28.3371
28.3418
28.3453
28.3487
28.3536
28.3589
28.3639
28.367
28.3699
28.3735
28.3764
28.378
28.3765
28.3737
28.3692
28.3625
28.3523
28.3365
28.3164
28.291
28.2607
28.2227
28.1751
28.1183
28.0515
27.9757
27.8871
27.7849
27.6677
27.5357
28.3009
28.3014
28.303
28.3034
28.3039
28.3057
28.3081
28.3106
28.3117
28.314
28.3172
28.3208
28.3235
28.3253
28.3283
28.3316
28.3349
28.3363
28.3366
28.3375
28.3376
28.3365
28.3321
28.3258
28.3177
28.307
28.2932
28.2735
28.2492
28.2194
28.1842
28.1423
28.0905
28.0297
27.9585
27.8784
27.7866
27.6811
27.5617
27.4271
28.2869
28.2868
28.2881
28.2889
28.2888
28.2899
28.2914
28.2936
28.2942
28.2952
28.2971
28.2995
28.3015
28.3018
28.3028
28.3042
28.3056
28.3054
28.3033
28.3015
28.2987
28.2949
28.2879
28.278
28.2666
28.2519
28.2344
28.2111
28.1827
28.1489
28.109
28.0631
28.0074
27.9427
27.8678
27.7833
27.6884
27.58
27.4583
27.3217
28.2726
28.2722
28.273
28.274
28.2736
28.274
28.2746
28.2762
28.2765
28.2763
28.277
28.2779
28.279
28.2781
28.2773
28.2767
28.2761
28.2743
28.27
28.2655
28.2599
28.2533
28.2438
28.2306
28.2157
28.1974
28.1762
28.1496
28.117
28.0795
28.0352
27.9852
27.926
27.8574
27.7792
27.6907
27.5926
27.4815
27.3574
27.2191
28.2581
28.2576
28.2577
28.2587
28.2583
28.258
28.2578
28.2584
28.2585
28.2574
28.2568
28.2562
28.2562
28.2544
28.2517
28.2492
28.2464
28.243
28.2367
28.2295
28.2213
28.2117
28.1997
28.1835
28.1652
28.1435
28.1184
28.0887
28.0524
28.011
27.9628
27.9087
27.8462
27.7739
27.6926
27.6004
27.499
27.3856
27.2591
27.1193
28.2433
28.243
28.2424
28.2431
28.2427
28.2419
28.241
28.2405
28.2402
28.2383
28.2365
28.2346
28.2331
28.2304
28.226
28.2218
28.2168
28.2115
28.2035
28.1937
28.1829
28.1703
28.1558
28.1369
28.1152
28.0903
28.0614
28.0285
27.9888
27.9437
27.8919
27.8337
27.768
27.6923
27.6078
27.5126
27.4078
27.2921
27.1635
27.0222
28.2283
28.2282
28.2273
28.2273
28.2269
28.2257
28.2242
28.2225
28.2216
28.2192
28.2162
28.213
28.2099
28.2063
28.2004
28.1943
28.1873
28.1799
28.1703
28.158
28.1448
28.1293
28.1121
28.0908
28.0658
28.0377
28.0053
27.9691
27.9263
27.8775
27.8224
27.7603
27.6914
27.6127
27.5249
27.427
27.319
27.2011
27.0705
26.9276
28.2131
28.2133
28.2122
28.2115
28.2109
28.2093
28.2073
28.2047
28.2028
28.1999
28.1959
28.1914
28.1867
28.1819
28.1749
28.1668
28.158
28.1483
28.1371
28.1227
28.1068
28.0888
28.0686
28.045
28.017
27.9858
27.9501
27.9105
27.8648
27.8126
27.7543
27.6886
27.6163
27.5349
27.4441
27.3436
27.2327
27.1124
26.9801
26.8356
28.1979
28.1981
28.1972
28.1957
28.1948
28.1928
28.1904
28.1869
28.1839
28.1804
28.1755
28.1699
28.1636
28.1574
28.1493
28.1395
28.1289
28.117
28.1039
28.0876
28.0692
28.0487
28.0257
27.9996
27.9689
27.9346
27.8959
27.8529
27.8043
27.749
27.6875
27.6187
27.543
27.4589
27.3653
27.2623
27.1489
27.0261
26.8922
26.7462
28.1827
28.1828
28.1821
28.18
28.1785
28.1763
28.1734
28.1693
28.165
28.1609
28.1551
28.1484
28.1408
28.1329
28.1237
28.1124
28.0999
28.086
28.0708
28.0528
28.032
28.009
27.9834
27.9546
27.9215
27.8842
27.8427
27.7964
27.7449
27.6867
27.6222
27.5504
27.4715
27.3847
27.2885
27.1832
27.0675
26.9422
26.8067
26.6594
28.1676
28.1674
28.1668
28.1645
28.1622
28.1596
28.1562
28.1518
28.1463
28.1412
28.1347
28.127
28.1181
28.1085
28.0981
28.0854
28.0711
28.0553
28.038
28.0182
27.9952
27.9698
27.9417
27.9103
27.8748
27.8347
27.7904
27.7412
27.6867
27.6258
27.5583
27.4838
27.4019
27.3123
27.2138
27.1061
26.9884
26.861
26.7237
26.5752
28.1526
28.152
28.1513
28.1491
28.146
28.143
28.139
28.1342
28.1279
28.1215
28.1143
28.1056
28.0956
28.0844
28.0726
28.0587
28.0426
28.025
28.0055
27.9839
27.959
27.9312
27.9006
27.8667
27.8288
27.7861
27.739
27.6871
27.6297
27.5662
27.496
27.4188
27.3342
27.2419
27.1411
27.0313
26.9117
26.7822
26.6432
26.4935
28.1377
28.1368
28.1358
28.1337
28.1301
28.1264
28.1219
28.1166
28.1097
28.102
28.094
28.0843
28.0732
28.0607
28.0472
28.0321
28.0145
27.995
27.9736
27.95
27.9233
27.8932
27.8602
27.824
27.7836
27.7385
27.6888
27.6342
27.5741
27.5079
27.4352
27.3555
27.2683
27.1735
27.0704
26.9585
26.8372
26.7059
26.5652
26.4143
28.1228
28.1217
28.1202
28.1182
28.1143
28.11
28.1049
28.0989
28.0916
28.0828
28.0737
28.0632
28.051
28.0373
28.0221
28.0057
27.9867
27.9654
27.9421
27.9165
27.888
27.8559
27.8206
27.782
27.7393
27.692
27.6396
27.5825
27.5199
27.4512
27.3759
27.2938
27.2044
27.1072
27.0018
26.888
26.7649
26.6321
26.4897
26.3376
28.1079
28.1068
28.1048
28.1026
28.0987
28.0937
28.088
28.0813
28.0736
28.064
28.0536
28.0422
28.029
28.0141
27.9975
27.9795
27.9592
27.9363
27.9112
27.8837
27.8533
27.8193
27.7818
27.7409
27.696
27.6464
27.5917
27.5321
27.4671
27.396
27.3184
27.2339
27.1422
27.0429
26.9354
26.8196
26.6949
26.5607
26.4169
26.2635
28.093
28.0921
28.0898
28.0871
28.0832
28.0777
28.0714
28.0639
28.0556
28.0454
28.0339
28.0215
28.0072
27.9913
27.9733
27.9537
27.9322
27.9078
27.8809
27.8514
27.8192
27.7835
27.7438
27.7007
27.6536
27.602
27.5451
27.483
27.4158
27.3424
27.2625
27.1757
27.0819
26.9807
26.8712
26.7534
26.6272
26.4916
26.3466
26.1919
28.0783
28.0774
28.075
28.0718
28.0677
28.0619
28.055
28.0468
28.0377
28.027
28.0145
28.001
27.9858
27.9688
27.9496
27.9284
27.9055
27.8797
27.8512
27.8199
27.7858
27.7484
27.7069
27.6616
27.6124
27.5586
27.4997
27.4353
27.3658
27.2903
27.2083
27.1194
27.0235
26.9204
26.8091
26.6895
26.5617
26.4249
26.2787
26.123
28.0638
28.0629
28.0605
28.0568
28.0523
28.0462
28.0388
28.0301
28.0201
28.0088
27.9956
27.981
27.9647
27.9466
27.9264
27.9038
27.8793
27.8522
27.8222
27.7892
27.7532
27.7141
27.6708
27.6235
27.5722
27.5164
27.4556
27.3891
27.3174
27.2399
27.1559
27.065
26.9671
26.8621
26.7492
26.628
26.4986
26.3605
26.2133
26.0568
28.0496
28.0486
28.0462
28.0422
28.0372
28.0308
28.023
28.0137
28.0029
27.9909
27.977
27.9613
27.944
27.9248
27.9036
27.8797
27.8537
27.8253
27.7938
27.7593
27.7215
27.6806
27.6358
27.5865
27.5332
27.4755
27.4128
27.3444
27.2705
27.1911
27.1052
27.0125
26.9127
26.8059
26.6915
26.5687
26.4379
26.2985
26.1504
25.993
28.0357
28.0345
28.032
28.0279
28.0224
28.0157
28.0074
27.9976
27.9861
27.9733
27.9587
27.9422
27.9239
27.9035
27.8812
27.8563
27.8288
27.7991
27.7662
27.7302
27.6908
27.6481
27.6017
27.5507
27.4955
27.4359
27.3713
27.3012
27.2254
27.144
27.0563
26.9619
26.8604
26.7518
26.6359
26.5118
26.3795
26.239
26.0898
25.9318
28.0221
28.0208
28.0181
28.0138
28.008
28.0008
27.9921
27.9818
27.9697
27.9562
27.9409
27.9235
27.9042
27.8829
27.8595
27.8335
27.8047
27.7736
27.7394
27.702
27.6611
27.6167
27.5686
27.5161
27.4591
27.3976
27.3313
27.2596
27.1819
27.0986
27.0092
26.9132
26.8101
26.6998
26.5824
26.4572
26.3236
26.1819
26.0318
25.8731
28.0088
28.0074
28.0045
28.0001
27.994
27.9864
27.9773
27.9665
27.9538
27.9395
27.9235
27.9054
27.8852
27.8628
27.8383
27.8113
27.7814
27.7489
27.7134
27.6746
27.6323
27.5863
27.5367
27.4826
27.4241
27.3609
27.2927
27.2194
27.1402
27.0551
26.964
26.8665
26.7619
26.6501
26.5313
26.4048
26.2702
26.1274
25.9763
25.8169
27.9959
27.9944
27.9913
27.9868
27.9804
27.9724
27.9628
27.9515
27.9384
27.9234
27.9066
27.8878
27.8667
27.8434
27.8179
27.7898
27.7589
27.7251
27.6883
27.6482
27.6046
27.5571
27.5059
27.4505
27.3904
27.3256
27.2558
27.1809
27.1001
27.0134
26.9208
26.8217
26.7158
26.6027
26.4824
26.3548
26.2191
26.0754
25.9234
25.7632
27.9833
27.9818
27.9786
27.9738
27.9673
27.9589
27.9489
27.9371
27.9234
27.9078
27.8903
27.8707
27.8489
27.8247
27.7982
27.7691
27.7371
27.7022
27.6641
27.6228
27.578
27.5291
27.4764
27.4196
27.3581
27.2918
27.2204
27.144
27.0619
26.9737
26.8795
26.779
26.6718
26.5575
26.4359
26.3071
26.1705
26.0259
25.8731
25.7122
27.9713
27.9697
27.9664
27.9613
27.9545
27.9459
27.9354
27.9232
27.909
27.8929
27.8746
27.8543
27.8318
27.8068
27.7793
27.7492
27.7163
27.6802
27.641
27.5985
27.5524
27.5024
27.4483
27.3901
27.3272
27.2596
27.1868
27.1089
27.0254
26.9359
26.8403
26.7384
26.63
26.5145
26.3918
26.2618
26.1243
25.9789
25.8255
25.6639
27.9596
27.9581
27.9546
27.9493
27.9423
27.9334
27.9225
27.9098
27.8952
27.8785
27.8596
27.8386
27.8154
27.7896
27.7612
27.7302
27.6963
27.6593
27.619
27.5753
27.5281
27.4769
27.4215
27.362
27.2979
27.2289
27.1548
27.0755
26.9908
26.9
26.8031
26.7
26.5903
26.4738
26.35
26.2191
26.0807
25.9345
25.7804
25.6182
27.9486
27.9469
27.9434
27.9379
27.9306
27.9215
27.9102
27.8971
27.882
27.8648
27.8454
27.8237
27.7997
27.7733
27.744
27.7122
27.6774
27.6394
27.5981
27.5534
27.505
27.4527
27.3962
27.3355
27.2701
27.1999
27.1247
27.0441
26.9581
26.8661
26.7681
26.6638
26.553
26.4354
26.3107
26.1788
26.0396
25.8927
25.738
25.5753
27.9381
27.9363
27.9327
27.9271
27.9195
27.9101
27.8986
27.8851
27.8695
27.8518
27.8318
27.8096
27.7849
27.7578
27.7278
27.6951
27.6594
27.6206
27.5784
27.5326
27.4832
27.4299
27.3723
27.3105
27.2439
27.1726
27.0963
27.0145
26.9273
26.8343
26.7352
26.6298
26.5179
26.3994
26.2739
26.1411
26.0011
25.8535
25.6983
25.5351
27.9281
27.9264
27.9227
27.9169
27.9091
27.8994
27.8876
27.8737
27.8577
27.8396
27.8191
27.7963
27.771
27.7432
27.7125
27.6791
27.6426
27.6029
27.5599
27.5132
27.4628
27.4085
27.3499
27.287
27.2195
27.1471
27.0697
26.9869
26.8986
26.8046
26.7044
26.5981
26.4853
26.3659
26.2395
26.106
25.9652
25.817
25.6613
25.4977
27.9189
27.917
27.9132
27.9073
27.8993
27.8894
27.8773
27.8631
27.8467
27.8281
27.8072
27.7838
27.758
27.7296
27.6983
27.6641
27.6269
27.5864
27.5426
27.4951
27.4438
27.3886
27.3291
27.2653
27.1967
27.1234
27.045
26.9612
26.872
26.777
26.6759
26.5687
26.455
26.3348
26.2077
26.0735
25.9321
25.7833
25.627
25.4631
27.9102
27.9084
27.9044
27.8984
27.8903
27.8801
27.8678
27.8532
27.8365
27.8175
27.7962
27.7723
27.746
27.717
27.6851
27.6503
27.6124
27.5712
27.5266
27.4783
27.4263
27.3702
27.3099
27.2452
27.1758
27.1016
27.0223
26.9376
26.8475
26.7516
26.6497
26.5417
26.4273
26.3062
26.1784
26.0436
25.9016
25.7523
25.5956
25.4313
27.9023
27.9004
27.8964
27.8903
27.882
27.8716
27.859
27.8442
27.8272
27.8078
27.7861
27.7618
27.7349
27.7054
27.673
27.6376
27.5991
27.5573
27.512
27.4631
27.4102
27.3535
27.2924
27.2268
27.1567
27.0817
27.0016
26.9161
26.8252
26.7285
26.6259
26.5171
26.402
26.2802
26.1518
26.0164
25.8739
25.7242
25.567
25.4024
27.8952
27.8932
27.8891
27.8829
27.8745
27.8638
27.8511
27.836
27.8187
27.799
27.7769
27.7523
27.725
27.695
27.6621
27.6262
27.5871
27.5447
27.4988
27.4493
27.3958
27.3383
27.2766
27.2103
27.1395
27.0637
26.9829
26.8967
26.8051
26.7078
26.6044
26.495
26.3793
26.2569
26.1279
25.992
25.849
25.6989
25.5414
25.3764
27.8888
27.8868
27.8826
27.8763
27.8678
27.857
27.844
27.8288
27.8111
27.7912
27.7687
27.7438
27.7161
27.6857
27.6524
27.616
27.5765
27.5336
27.4871
27.437
27.3829
27.3249
27.2626
27.1957
27.1242
27.0478
26.9664
26.8796
26.7873
26.6894
26.5854
26.4754
26.3591
26.2363
26.1068
25.9704
25.827
25.6766
25.5187
25.3535
27.8832
27.8812
27.877
27.8706
27.8619
27.851
27.8379
27.8224
27.8046
27.7844
27.7616
27.7364
27.7084
27.6776
27.644
27.6072
27.5672
27.5238
27.4769
27.4264
27.3718
27.3132
27.2504
27.1829
27.1109
27.034
26.952
26.8647
26.7718
26.6734
26.569
26.4584
26.3417
26.2184
26.0884
25.9517
25.8079
25.6572
25.4991
25.3336
27.8785
27.8765
27.8722
27.8657
27.857
27.8459
27.8326
27.817
27.799
27.7786
27.7556
27.7301
27.7018
27.6707
27.6368
27.5997
27.5593
27.5156
27.4683
27.4173
27.3624
27.3033
27.2401
27.1722
27.0997
27.0223
26.9399
26.8521
26.7588
26.6599
26.5551
26.4441
26.3269
26.2033
26.073
25.9359
25.7919
25.6408
25.4825
25.3169
27.8747
27.8726
27.8683
27.8617
27.8529
27.8418
27.8284
27.8126
27.7945
27.7739
27.7507
27.725
27.6965
27.6652
27.631
27.5936
27.553
27.5089
27.4613
27.41
27.3547
27.2953
27.2317
27.1635
27.0906
27.0129
26.93
26.8419
26.7483
26.649
26.5438
26.4325
26.315
26.1911
26.0605
25.9232
25.7789
25.6276
25.4691
25.3033
27.8717
27.8697
27.8653
27.8587
27.8498
27.8387
27.8251
27.8093
27.791
27.7703
27.747
27.7211
27.6925
27.661
27.6265
27.589
27.5481
27.5039
27.456
27.4044
27.3489
27.2892
27.2253
27.1569
27.0837
27.0057
26.9226
26.8342
26.7403
26.6407
26.5352
26.4237
26.3059
26.1818
26.051
25.9135
25.769
25.6175
25.459
25.293
27.8698
27.8677
27.8633
27.8567
27.8477
27.8366
27.823
27.807
27.7887
27.7679
27.7445
27.7185
27.6897
27.6581
27.6235
27.5858
27.5448
27.5004
27.4524
27.4006
27.345
27.2851
27.221
27.1524
27.079
27.0008
26.9175
26.8289
26.7349
26.6351
26.5295
26.4178
26.2998
26.1755
26.0446
25.9069
25.7624
25.6108
25.4521
25.2861
27.8687
27.8667
27.8623
27.8557
27.8467
27.8355
27.8219
27.8059
27.7875
27.7667
27.7432
27.7171
27.6884
27.6567
27.622
27.5842
27.5432
27.4987
27.4506
27.3987
27.343
27.2831
27.2188
27.1502
27.0767
26.9984
26.915
26.8263
26.7321
26.6322
26.5265
26.4148
26.2967
26.1724
26.0413
25.9036
25.759
25.6073
25.4486
25.2826
39.6164
39.1208
37.2946
35.3176
33.6277
32.2911
31.235
30.3899
29.6754
29.0626
28.5134
28.025
27.5629
27.13
26.6969
26.2748
25.8371
25.4122
24.9601
24.5329
24.0694
23.6382
23.1723
22.7329
22.2685
21.8158
21.3546
20.8861
20.4268
19.9399
19.4691
18.9598
18.468
17.9326
17.4312
16.8384
16.3503
15.6808
15.1946
14.4841
13.9362
13.2538
12.5914
11.9276
11.1905
10.5109
9.6761
9.07238
8.05278
7.52886
6.46903
5.81225
4.90296
4.09326
3.40738
2.33936
2.08346
0.818309
0.60473
-0.241108
-0.814528
-0.771145
-1.96113
-1.36764
-2.02177
-2.37882
-1.64818
-2.74666
-2.013
-1.54855
-2.23311
-1.17722
-1.2274
-1.77042
-0.863702
-0.799755
-0.972532
-0.275636
0.145223
0.0267063
37.6347
37.5606
36.6689
35.2109
33.6715
32.3032
31.1839
30.2922
29.5674
28.9714
28.4316
27.969
27.4986
27.0888
26.634
26.2387
25.7729
25.3787
24.8958
24.4999
24.0088
23.6022
23.121
22.6899
22.2328
21.7637
21.334
20.8245
20.4089
19.8734
19.4454
18.8974
18.4494
17.8671
17.4234
16.7741
16.3393
15.6412
15.1564
14.4927
13.8643
13.2906
12.5212
11.97
11.1244
10.5696
9.6112
9.11544
8.05659
7.48743
6.58894
5.71848
5.08586
3.97724
3.57319
2.30666
2.08311
1.05088
0.415419
0.100515
-1.01736
-0.662525
-1.69258
-1.66715
-1.60292
-2.62866
-1.67096
-2.19138
-2.49425
-1.30577
-1.97567
-1.60845
-0.877386
-1.65221
-1.20408
-0.512873
-0.870684
-0.48368
0.20901
0.0855303
36.7583
36.8256
36.2883
35.1934
33.8101
32.4442
31.2537
30.2949
29.5213
28.9143
28.3753
27.9207
27.4571
27.0464
26.5972
26.1914
25.7373
25.3237
24.8624
24.4381
23.98
23.5374
23.0949
22.6239
22.2033
21.7007
21.2931
20.7695
20.3533
19.8265
19.3817
18.8552
18.3853
17.8294
17.3499
16.7599
16.2401
15.6575
15.0448
14.5062
13.7861
13.2673
12.504
11.9216
11.136
10.5137
9.69089
9.00595
8.21941
7.38268
6.7233
5.7496
5.13221
4.15242
3.55606
2.68744
1.97206
1.40439
0.522114
0.228052
-0.538993
-0.813626
-1.13215
-1.64165
-1.51605
-1.97356
-1.98863
-1.81076
-2.12747
-1.64609
-1.45261
-1.61665
-1.16121
-1.16884
-1.25396
-0.757001
-0.556379
-0.487791
-0.0515948
0.0663495
36.0611
36.132
35.7144
34.8713
33.6752
32.4289
31.2401
30.2613
29.4423
28.8153
28.271
27.817
27.3725
26.9591
26.5326
26.1117
25.6826
25.2421
24.8132
24.3521
23.9343
23.4512
23.0469
22.5449
22.1451
21.6365
21.2201
20.7203
20.2686
19.7832
19.2951
18.8097
18.2996
17.7877
17.2577
16.7311
16.1441
15.633
14.9725
14.4618
13.7587
13.1925
12.5052
11.8402
11.1581
10.4495
9.74222
8.95507
8.28924
7.39489
6.75332
5.87142
5.13033
4.35743
3.59112
2.92312
2.05245
1.56962
0.815942
0.290781
-0.190328
-0.722837
-0.894169
-1.337
-1.49905
-1.60535
-1.91569
-1.72956
-1.75484
-1.71026
-1.34439
-1.3694
-1.27953
-1.03839
-1.04423
-0.87218
-0.48264
-0.370628
-0.19077
0.02109
35.4568
35.5041
35.1641
34.4902
33.4853
32.3668
31.2412
30.2563
29.4252
28.7548
28.2057
27.7288
27.3027
26.8806
26.4771
26.0461
25.635
25.1808
24.7657
24.2918
23.8823
23.3954
22.9869
22.498
22.0752
21.599
21.1448
20.6856
20.1956
19.7418
19.2294
18.7596
18.236
17.7391
17.1923
16.6841
16.0914
15.5771
14.9491
14.3935
13.7603
13.1254
12.5035
11.8009
11.1568
10.4288
9.75207
8.97591
8.29881
7.48658
6.75666
5.99681
5.19141
4.49386
3.70582
3.05568
2.27482
1.68246
1.07881
0.459848
0.044736
-0.450951
-0.753985
-1.04524
-1.33819
-1.41198
-1.59045
-1.63001
-1.52796
-1.5307
-1.32508
-1.19406
-1.18311
-1.03139
-0.883752
-0.802513
-0.526802
-0.308007
-0.198803
-0.0143312
34.9282
34.9445
34.6641
34.0967
33.2605
32.2574
31.2241
30.2468
29.4235
28.7126
28.1501
27.6499
27.2242
26.801
26.406
25.9795
25.5736
25.1229
24.7058
24.2391
23.8169
23.3483
22.9145
22.4551
21.9992
21.5552
21.0731
20.6342
20.1339
19.6818
19.1758
18.6971
18.1828
17.6801
17.1396
16.6235
16.053
15.5086
14.9256
14.3284
13.7378
13.0829
12.4747
11.7871
11.1337
10.4287
9.7443
9.01316
8.2955
7.55864
6.78995
6.07755
5.29045
4.58822
3.8456
3.16746
2.47968
1.82756
1.27834
0.680953
0.228793
-0.202969
-0.574689
-0.819491
-1.09961
-1.25502
-1.34821
-1.46619
-1.4032
-1.34531
-1.24621
-1.09963
-1.04949
-0.984961