/*--------------------------------*- C++ -*----------------------------------*\
| =========                 |                                                 |
| \\      /  F ield         | OpenFOAM: The Open Source CFD Toolbox           |
|  \\    /   O peration     | Version:  v2012                                 |
|   \\  /    A nd           | Website:  www.openfoam.com                      |
|    \\/     M anipulation  |                                                 |
\*---------------------------------------------------------------------------*/
FoamFile
{
    version     2.0;
    format      ascii;
    class       surfaceScalarField;
    location    "0.1";
    object      phi;
}
// * * * * * * * * * * * * * * * * * * * * * * * * * * * * * * * * * * * * * //

dimensions      [0 3 -1 0 0 0 0];
oriented        oriented;


internalField   nonuniform List<scalar> 
19000
(
0.000433004
-4.88968e-09
0.00043306
-5.54543e-08
0.000433031
2.85561e-08
0.000433056
-2.51273e-08
0.000432997
5.87816e-08
0.000433027
-2.95592e-08
0.000432972
5.45431e-08
0.000433021
-4.83105e-08
0.000432965
5.5523e-08
0.00043302
-5.43715e-08
0.000432956
6.37798e-08
0.000433015
-5.8813e-08
0.00043294
7.45444e-08
0.000433004
-6.41373e-08
0.000432919
8.48146e-08
0.00043299
-7.06781e-08
0.000432895
9.47847e-08
0.000432973
-7.72662e-08
0.000432867
1.05232e-07
0.00043295
-8.3013e-08
0.000432834
1.16081e-07
0.000432922
-8.76926e-08
0.000432795
1.26945e-07
0.000432886
-9.06024e-08
0.000432748
1.37549e-07
0.00043284
-9.16346e-08
0.000432691
1.48284e-07
0.000432781
-8.94801e-08
0.000432621
1.59549e-07
0.000432706
-8.48232e-08
0.000432534
1.72328e-07
0.000432611
-7.71524e-08
0.000432425
1.86429e-07
0.000432493
-6.82149e-08
0.000432285
2.08181e-07
0.00043233
-4.50774e-08
0.000432038
2.91543e-07
0.000431876
1.61646e-07
0.000430982
8.94136e-07
1.39649e-06
0.000429586
0.000436792
1.7882e-08
0.000436815
-7.77116e-08
0.0004368
4.33455e-08
0.000436825
-5.027e-08
0.000436801
8.25788e-08
0.00043682
-4.81351e-08
0.00043679
8.446e-08
0.000436808
-6.67162e-08
0.000436781
8.27217e-08
0.000436802
-7.50565e-08
0.000436775
9.07605e-08
0.000436793
-7.67791e-08
0.000436765
1.02164e-07
0.000436779
-7.84314e-08
0.000436751
1.13054e-07
0.000436762
-8.1409e-08
0.000436733
1.23484e-07
0.00043674
-8.45586e-08
0.000436711
1.34918e-07
0.000436714
-8.64504e-08
0.000436683
1.47631e-07
0.000436681
-8.65141e-08
0.000436648
1.60609e-07
0.00043664
-8.30264e-08
0.000436605
1.7265e-07
0.000436589
-7.53452e-08
0.000436553
1.8405e-07
0.000436524
-6.03012e-08
0.000436488
1.95037e-07
0.000436442
-3.84895e-08
0.000436407
2.07574e-07
0.000436337
-7.50083e-09
0.0004363
2.23692e-07
0.000436191
4.031e-08
0.00043612
2.79788e-07
0.000435914
1.60219e-07
0.000435722
4.83691e-07
0.0004353
5.83706e-07
0.000434982
1.21252e-06
1.75993e-06
0.000434618
0.000440644
3.88386e-08
0.000440646
-7.98034e-08
0.000440636
5.302e-08
0.000440651
-6.51619e-08
0.000440648
8.57722e-08
0.000440655
-5.54727e-08
0.000440646
9.35167e-08
0.000440643
-6.41445e-08
0.000440638
8.85986e-08
0.000440631
-6.86298e-08
0.000440631
9.09697e-08
0.000440619
-6.49651e-08
0.000440624
9.754e-08
0.000440605
-5.95296e-08
0.000440613
1.04637e-07
0.000440587
-5.48204e-08
0.000440599
1.11584e-07
0.000440564
-5.02534e-08
0.000440579
1.1981e-07
0.000440537
-4.39052e-08
0.000440555
1.29712e-07
0.000440503
-3.46378e-08
0.000440523
1.40125e-07
0.000440461
-2.03451e-08
0.000440484
1.49757e-07
0.000440409
-5.35356e-10
0.000440434
1.59142e-07
0.000440344
2.94071e-08
0.00044037
1.68684e-07
0.000440263
6.90092e-08
0.000440287
1.83586e-07
0.000440157
1.2199e-07
0.000440165
2.15793e-07
0.000439996
2.09962e-07
0.000439962
3.13646e-07
0.000439708
4.13807e-07
0.000439596
5.95807e-07
0.000439241
9.38313e-07
0.000439134
1.31957e-06
2.08118e-06
0.000438813
0.000444538
4.85139e-08
0.00044453
-7.1526e-08
0.000444527
5.587e-08
0.000444527
-6.50227e-08
0.000444534
7.89799e-08
0.000444532
-5.36749e-08
0.000444536
8.93741e-08
0.000444525
-5.27708e-08
0.000444527
8.63145e-08
0.000444512
-5.36088e-08
0.000444516
8.65636e-08
0.0004445
-4.8161e-08
0.000444506
9.1312e-08
0.000444487
-4.02779e-08
0.000444493
9.82056e-08
0.00044447
-3.21871e-08
0.000444476
1.05617e-07
0.000444449
-2.31113e-08
0.000444456
1.13398e-07
0.000444422
-1.03743e-08
0.000444431
1.21374e-07
0.000444388
7.81723e-09
0.000444399
1.28704e-07
0.000444345
3.36989e-08
0.000444361
1.33931e-07
0.000444292
6.83073e-08
0.000444312
1.39248e-07
0.000444227
1.14341e-07
0.000444248
1.47852e-07
0.000444146
1.71468e-07
0.000444161
1.68444e-07
0.000444036
2.47113e-07
0.000444031
2.20957e-07
0.000443867
3.73705e-07
0.000443822
3.58256e-07
0.000443602
6.33608e-07
0.000443496
7.02402e-07
0.000443248
1.18662e-06
0.000443117
1.45033e-06
2.26604e-06
0.000442932
0.000448464
5.00849e-08
0.000448453
-6.05203e-08
0.000448456
5.32719e-08
0.000448445
-5.4855e-08
0.000448456
6.84956e-08
0.000448447
-4.45584e-08
0.000448458
7.80827e-08
0.000448443
-3.77541e-08
0.000448451
7.85035e-08
0.000448431
-3.36865e-08
0.000448439
7.84908e-08
0.000448417
-2.65368e-08
0.000448427
8.21959e-08
0.000448403
-1.70026e-08
0.000448413
8.86266e-08
0.000448387
-5.90158e-09
0.000448396
9.63278e-08
0.000448365
8.04991e-09
0.000448375
1.0344e-07
0.000448337
2.76797e-08
0.000448349
1.08903e-07
0.000448302
5.51146e-08
0.000448318
1.12997e-07
0.000448259
9.17469e-08
0.000448278
1.15658e-07
0.000448208
1.38244e-07
0.000448226
1.20594e-07
0.000448144
1.96361e-07
0.000448159
1.33589e-07
0.000448063
2.66678e-07
0.000448065
1.66545e-07
0.000447952
3.60233e-07
0.000447928
2.45334e-07
0.000447789
5.12993e-07
0.000447721
4.25898e-07
0.000447551
8.03284e-07
0.000447431
8.22934e-07
0.00044726
1.35723e-06
0.000447121
1.58957e-06
2.35043e-06
0.000447037
0.000452418
4.94257e-08
0.000452416
-5.80713e-08
0.000452412
5.76291e-08
0.000452405
-4.86115e-08
0.000452407
6.67955e-08
0.000452401
-3.88923e-08
0.000452407
7.21874e-08
0.000452398
-2.82138e-08
0.000452403
7.3263e-08
0.000452387
-1.72451e-08
0.000452393
7.22132e-08
0.000452371
-4.95023e-09
0.000452381
7.24422e-08
0.000452354
9.9988e-09
0.000452368
7.42464e-08
0.000452335
2.79062e-08
0.000452353
7.79322e-08
0.000452311
5.01956e-08
0.000452333
8.17861e-08
0.000452282
7.78286e-08
0.000452306
8.5445e-08
0.000452248
1.12491e-07
0.000452272
8.95405e-08
0.000452209
1.55143e-07
0.000452229
9.56234e-08
0.00045216
2.06405e-07
0.000452172
1.08543e-07
0.000452101
2.67705e-07
0.000452098
1.36217e-07
0.000452024
3.41146e-07
0.000451998
1.92934e-07
0.000451917
4.40945e-07
0.000451855
3.07456e-07
0.000451763
6.04757e-07
0.000451652
5.36456e-07
0.000451551
9.04888e-07
0.000451397
9.76749e-07
0.000451304
1.45043e-06
0.00045115
1.7431e-06
2.35722e-06
0.000451144
0.000456408
4.59382e-08
0.000456406
-5.56975e-08
0.000456406
5.78536e-08
0.000456395
-3.81578e-08
0.000456398
6.35404e-08
0.000456386
-2.65854e-08
0.000456397
6.15186e-08
0.000456381
-1.23228e-08
0.000456394
5.99926e-08
0.00045637
6.48282e-09
0.000456386
5.70636e-08
0.000456355
2.58681e-08
0.000456374
5.35251e-08
0.000456337
4.69284e-08
0.00045636
5.10875e-08
0.000456317
7.05542e-08
0.000456343
5.21349e-08
0.000456295
9.84744e-08
0.000456321
5.59539e-08
0.000456268
1.30064e-07
0.000456291
6.28034e-08
0.000456237
1.66168e-07
0.000456253
7.35602e-08
0.000456201
2.0747e-07
0.000456206
9.10732e-08
0.000456157
2.55123e-07
0.000456145
1.20588e-07
0.000456101
3.11589e-07
0.000456067
1.70645e-07
0.000456026
3.81658e-07
0.000455963
2.56413e-07
0.000455921
4.82411e-07
0.000455821
4.07715e-07
0.000455774
6.51886e-07
0.000455632
6.77898e-07
0.000455579
9.57786e-07
0.000455412
1.14428e-06
0.000455368
1.49438e-06
0.000455218
1.89256e-06
2.33252e-06
0.000455243
0.000460435
3.73848e-08
0.000460426
-4.66158e-08
0.000460436
4.79124e-08
0.000460416
-1.79057e-08
0.000460429
5.02121e-08
0.000460404
-1.19642e-09
0.000460425
4.02521e-08
0.000460397
1.62748e-08
0.000460423
3.40793e-08
0.000460388
4.15471e-08
0.000460414
3.07308e-08
0.000460373
6.62502e-08
0.0004604
2.68197e-08
0.000460357
8.97045e-08
0.000460383
2.53983e-08
0.00046034
1.13425e-07
0.000460362
3.02075e-08
0.000460321
1.39406e-07
0.000460336
4.14695e-08
0.000460299
1.67233e-07
0.000460302
5.90689e-08
0.000460271
1.97561e-07
0.000460261
8.32588e-08
0.000460237
2.31678e-07
0.000460211
1.17038e-07
0.000460194
2.72132e-07
0.000460149
1.65495e-07
0.000460138
3.23016e-07
0.000460071
2.37258e-07
0.000460061
3.9172e-07
0.00045997
3.47855e-07
0.000459955
4.97281e-07
0.000459836
5.26599e-07
0.00045981
6.77552e-07
0.000459667
8.21485e-07
0.000459629
9.95263e-07
0.000459479
1.29426e-06
0.000459446
1.52723e-06
0.000459328
2.01093e-06
2.31917e-06
0.000459341
0.000464499
2.28578e-08
0.000464477
-2.41929e-08
0.000464501
2.31781e-08
0.000464471
1.19497e-08
0.000464496
2.56528e-08
0.00046446
3.50734e-08
0.000464488
1.19599e-08
0.000464452
5.21865e-08
0.000464483
3.59984e-09
0.000464446
7.83243e-08
0.000464472
4.63393e-09
0.000464435
1.03046e-07
0.000464455
6.71005e-09
0.000464422
1.22668e-07
0.000464434
1.33517e-08
0.000464408
1.39671e-07
0.00046441
2.858e-08
0.000464392
1.57571e-07
0.000464381
5.23544e-08
0.000464371
1.77343e-07
0.000464346
8.37322e-08
0.000464343
2.00096e-07
0.000464305
1.21993e-07
0.000464308
2.2801e-07
0.000464256
1.69687e-07
0.000464263
2.65077e-07
0.000464196
2.31943e-07
0.000464203
3.16728e-07
0.000464122
3.17713e-07
0.000464122
3.92109e-07
0.000464027
4.42925e-07
0.000464013
5.10955e-07
0.000463903
6.36165e-07
0.000463871
7.09641e-07
0.000463753
9.40176e-07
0.000463704
1.04393e-06
0.000463592
1.40612e-06
0.000463545
1.57406e-06
0.000463473
2.08366e-06
2.33531e-06
0.000463456
0.000468597
4.12702e-09
0.000468562
1.05448e-08
0.000468596
-1.11041e-08
0.000468565
4.29926e-08
0.000468594
-2.88792e-09
0.000468558
7.07728e-08
0.000468581
-1.14787e-08
0.000468551
8.2636e-08
0.000468572
-1.73942e-08
0.000468548
1.02392e-07
0.000468559
-6.44159e-09
0.000468541
1.2127e-07
0.00046854
7.46187e-09
0.00046853
1.32791e-07
0.000468517
2.56544e-08
0.000468516
1.40881e-07
0.000468492
5.25845e-08
0.000468499
1.50743e-07
0.000468464
8.7621e-08
0.000468476
1.64651e-07
0.000468431
1.293e-07
0.000468447
1.84267e-07
0.000468392
1.76256e-07
0.000468408
2.1243e-07
0.000468347
2.30594e-07
0.000468358
2.54116e-07
0.000468292
2.9806e-07
0.000468294
3.15237e-07
0.000468222
3.88796e-07
0.000468209
4.05159e-07
0.000468132
5.198e-07
0.000468101
5.4283e-07
0.000468018
7.19067e-07
0.000467965
7.62079e-07
0.000467881
1.02435e-06
0.000467814
1.1112e-06
0.000467741
1.47894e-06
0.000467677
1.63805e-06
0.000467644
2.11695e-06
2.37374e-06
0.000467605
0.000472725
-1.34148e-08
0.00047269
4.5222e-08
0.000472717
-3.81998e-08
0.000472699
6.14427e-08
0.000472719
-2.34161e-08
0.000472699
9.14145e-08
0.000472705
-1.74626e-08
0.000472691
9.58461e-08
0.000472691
-1.74869e-08
0.000472689
1.0436e-07
0.000472679
4.14482e-09
0.000472684
1.16353e-07
0.000472661
3.07804e-08
0.000472672
1.21137e-07
0.000472639
5.83796e-08
0.000472657
1.2329e-07
0.000472617
9.29594e-08
0.000472637
1.30248e-07
0.000472591
1.33467e-07
0.000472611
1.44736e-07
0.000472562
1.7831e-07
0.000472578
1.68703e-07
0.000472528
2.26321e-07
0.000472535
2.04837e-07
0.000472486
2.79896e-07
0.000472482
2.57899e-07
0.000472434
3.46496e-07
0.000472416
3.33306e-07
0.000472366
4.38022e-07
0.000472332
4.39714e-07
0.000472279
5.72316e-07
0.000472227
5.95185e-07
0.00047217
7.75776e-07
0.000472102
8.30902e-07
0.000472044
1.08155e-06
0.000471967
1.18898e-06
0.000471921
1.52492e-06
0.000471849
1.70913e-06
0.000471839
2.12782e-06
2.41705e-06
0.000471795
0.000476883
-2.38829e-08
0.000476863
6.59557e-08
0.00047687
-4.51937e-08
0.00047687
6.13267e-08
0.000476875
-2.84412e-08
0.000476877
8.96868e-08
0.000476862
-3.30129e-09
0.000476868
9.00644e-08
0.000476847
3.43259e-09
0.000476864
8.7693e-08
0.000476838
3.05836e-08
0.000476858
9.60671e-08
0.000476823
6.6065e-08
0.000476844
9.96313e-08
0.000476804
9.80211e-08
0.000476826
1.01685e-07
0.000476785
1.33708e-07
0.000476803
1.12309e-07
0.000476763
1.73227e-07
0.000476774
1.33732e-07
0.000476738
2.1512e-07
0.000476739
1.67701e-07
0.000476706
2.59155e-07
0.000476695
2.15986e-07
0.000476666
3.08775e-07
0.000476642
2.8214e-07
0.000476614
3.74001e-07
0.000476577
3.70713e-07
0.000476547
4.67956e-07
0.000476496
4.89951e-07
0.000476461
6.08025e-07
0.000476398
6.57717e-07
0.000476356
8.17811e-07
0.000476284
9.03528e-07
0.00047624
1.12552e-06
0.000476163
1.26505e-06
0.00047613
1.55834e-06
0.000476064
1.77532e-06
0.00047606
2.13188e-06
2.45166e-06
0.000476025
0.000481076
-2.4719e-08
0.000481077
6.55442e-08
0.000481062
-3.02072e-08
0.000481076
4.73015e-08
0.000481066
-1.82373e-08
0.000481085
7.02256e-08
0.00048106
2.1559e-08
0.000481076
7.40217e-08
0.000481045
3.49648e-08
0.000481068
6.48598e-08
0.000481037
6.07236e-08
0.00048106
7.34066e-08
0.000481027
9.90832e-08
0.000481044
8.22635e-08
0.000481012
1.3065e-07
0.000481024
8.96044e-08
0.000480995
1.62365e-07
0.000481
1.07828e-07
0.000480976
1.97176e-07
0.00048097
1.39212e-07
0.000480951
2.33974e-07
0.000480934
1.84619e-07
0.00048092
2.73626e-07
0.000480892
2.4425e-07
0.000480879
3.2104e-07
0.000480841
3.20347e-07
0.000480827
3.88612e-07
0.00048078
4.17295e-07
0.000480759
4.89316e-07
0.000480705
5.4381e-07
0.000480674
6.38591e-07
0.000480614
7.18331e-07
0.000480575
8.56466e-07
0.000480509
9.69697e-07
0.000480468
1.16594e-06
0.000480402
1.33165e-06
0.000480372
1.58818e-06
0.000480318
1.82964e-06
0.000480312
2.13768e-06
2.47199e-06
0.000480292
0.000485308
-1.79858e-08
0.000485325
4.85135e-08
0.000485299
-4.0508e-09
0.000485316
3.08546e-08
0.000485297
7.56246e-10
0.000485323
4.41634e-08
0.000485299
4.50748e-08
0.000485315
5.80841e-08
0.000485286
6.44521e-08
0.000485301
4.91544e-08
0.000485278
8.3684e-08
0.000485293
5.90147e-08
0.000485272
1.20281e-07
0.000485277
7.67463e-08
0.000485258
1.49766e-07
0.000485255
9.21772e-08
0.000485242
1.75853e-07
0.000485231
1.1826e-07
0.000485223
2.05489e-07
0.000485203
1.59054e-07
0.000485199
2.38618e-07
0.000485169
2.13849e-07
0.000485166
2.76851e-07
0.00048513
2.80805e-07
0.000485124
3.26583e-07
0.000485083
3.61466e-07
0.00048507
4.01366e-07
0.000485026
4.6166e-07
0.000485003
5.12379e-07
0.000484955
5.9152e-07
0.000484922
6.72031e-07
0.00048487
7.70264e-07
0.000484829
8.96834e-07
0.000484773
1.02583e-06
0.000484733
1.20596e-06
0.000484678
1.38691e-06
0.000484649
1.6176e-06
0.000484607
1.87068e-06
0.000484598
2.14728e-06
2.47871e-06
0.000484591
0.000489582
-8.2318e-09
0.000489605
2.61097e-08
0.000489582
1.89786e-08
0.000489591
2.11956e-08
0.000489572
2.03101e-08
0.000489591
2.43385e-08
0.000489578
5.83319e-08
0.000489588
4.87089e-08
0.000489568
8.39037e-08
0.000489571
4.65735e-08
0.000489558
9.59724e-08
0.000489561
5.65931e-08
0.000489553
1.28084e-07
0.000489547
8.28604e-08
0.00048954
1.56552e-07
0.000489526
1.06748e-07
0.000489523
1.78373e-07
0.000489503
1.38787e-07
0.000489504
2.04259e-07
0.000489477
1.86252e-07
0.000489478
2.36979e-07
0.000489445
2.46594e-07
0.000489444
2.78192e-07
0.000489409
3.16099e-07
0.000489401
3.34653e-07
0.000489365
3.96921e-07
0.000489347
4.19511e-07
0.000489311
4.97633e-07
0.000489282
5.41393e-07
0.000489244
6.3015e-07
0.000489206
7.09479e-07
0.000489163
8.1358e-07
0.000489122
9.38048e-07
0.000489074
1.07338e-06
0.000489035
1.24485e-06
0.00048899
1.43191e-06
0.000488961
1.64699e-06
0.000488932
1.89971e-06
0.000488919
2.15963e-06
2.47505e-06
0.000488923
0.000493898
8.62736e-11
0.000493916
8.36432e-09
0.000493903
3.1477e-08
0.000493905
1.98511e-08
0.00049389
3.48635e-08
0.000493897
1.77415e-08
0.000493895
6.02702e-08
0.000493897
4.64936e-08
0.000493889
9.19259e-08
0.000493881
5.49742e-08
0.000493876
1.00689e-07
0.000493869
6.3822e-08
0.00049387
1.26947e-07
0.000493857
9.55987e-08
0.000493857
1.56216e-07
0.000493837
1.27206e-07
0.000493839
1.76437e-07
0.000493815
1.63024e-07
0.000493818
2.00702e-07
0.000493791
2.13572e-07
0.000493792
2.36365e-07
0.000493763
2.75593e-07
0.000493756
2.84439e-07
0.000493728
3.44263e-07
0.000493713
3.50059e-07
0.000493686
4.23533e-07
0.000493661
4.44606e-07
0.000493634
5.25119e-07
0.0004936
5.74854e-07
0.000493568
6.62073e-07
0.00049353
7.4783e-07
0.000493492
8.51619e-07
0.000493453
9.77266e-07
0.000493411
1.115e-06
0.000493375
1.28124e-06
0.000493338
1.46845e-06
0.000493309
1.67562e-06
0.00049329
1.91923e-06
0.000493277
2.17251e-06
2.46491e-06
0.000493287
0.000498255
4.13343e-09
0.000498262
1.21655e-09
0.000498261
3.23293e-08
0.000498257
2.41265e-08
0.000498249
4.25151e-08
0.000498244
2.29694e-08
0.000498248
5.66176e-08
0.000498246
4.83665e-08
0.000498246
9.20835e-08
0.000498233
6.76313e-08
0.000498231
1.03056e-07
0.000498219
7.60988e-08
0.000498222
1.23061e-07
0.000498208
1.09718e-07
0.000498211
1.53667e-07
0.00049819
1.48012e-07
0.000498191
1.75207e-07
0.000498168
1.86029e-07
0.000498169
2.00172e-07
0.000498146
2.36297e-07
0.000498141
2.41039e-07
0.00049812
2.97395e-07
0.000498106
2.97821e-07
0.000498086
3.64395e-07
0.000498064
3.72356e-07
0.000498044
4.43111e-07
0.000498015
4.73784e-07
0.000497992
5.47781e-07
0.000497958
6.08734e-07
0.000497929
6.91173e-07
0.000497893
7.83868e-07
0.000497858
8.86911e-07
0.000497822
1.01324e-06
0.000497785
1.1517e-06
0.000497752
1.31505e-06
0.000497722
1.49772e-06
0.000497695
1.70256e-06
0.000497683
1.93207e-06
0.000497672
2.18328e-06
2.45221e-06
0.000497684
0.00050265
4.44555e-09
0.000502648
3.33476e-09
0.000502654
2.60542e-08
0.000502648
2.97666e-08
0.000502646
4.47573e-08
0.000502635
3.38976e-08
0.000502638
5.37095e-08
0.000502635
5.17345e-08
0.000502638
8.86274e-08
0.000502627
7.8988e-08
0.000502624
1.06051e-07
0.00050261
8.98963e-08
0.000502612
1.20712e-07
0.0005026
1.22421e-07
0.000502602
1.51682e-07
0.000502584
1.65907e-07
0.000502582
1.77256e-07
0.000502563
2.05141e-07
0.000502557
2.05285e-07
0.000502541
2.52704e-07
0.00050253
2.52047e-07
0.000502515
3.11982e-07
0.000502496
3.1699e-07
0.000502482
3.78868e-07
0.000502456
3.98093e-07
0.000502439
4.5972e-07
0.00050241
5.02853e-07
0.000502389
5.6962e-07
0.000502358
6.39649e-07
0.000502329
7.19892e-07
0.000502297
8.16223e-07
0.000502263
9.20068e-07
0.00050223
1.04637e-06
0.000502199
1.18346e-06
0.000502167
1.3467e-06
0.000502144
1.52088e-06
0.000502119
1.72683e-06
0.000502111
1.94071e-06
0.000502104
2.19002e-06
2.43955e-06
0.000502117
0.000507081
2.70154e-09
0.000507075
9.75717e-09
0.000507082
1.93496e-08
0.000507078
3.30523e-08
0.000507078
4.48104e-08
0.000507068
4.38778e-08
0.000507067
5.5057e-08
0.000507063
5.53861e-08
0.000507067
8.51443e-08
0.000507059
8.66748e-08
0.000507056
1.09634e-07
0.000507042
1.03479e-07
0.000507041
1.214e-07
0.00050703
1.33457e-07
0.000507031
1.51386e-07
0.000507017
1.79658e-07
0.000507011
1.83053e-07
0.000506997
2.19624e-07
0.000506986
2.16046e-07
0.000506975
2.63768e-07
0.000506959
2.67766e-07
0.000506949
3.21879e-07
0.000506928
3.38597e-07
0.000506915
3.91286e-07
0.00050689
4.23368e-07
0.000506873
4.76811e-07
0.000506847
5.29076e-07
0.000506824
5.92461e-07
0.000506797
6.66779e-07
0.000506768
7.481e-07
0.000506739
8.45587e-07
0.000506709
9.50299e-07
0.000506678
1.07743e-06
0.000506651
1.21053e-06
0.000506622
1.3757e-06
0.000506603
1.53988e-06
0.000506583
1.74685e-06
0.000506576
1.94751e-06
0.000506574
2.19153e-06
2.42798e-06
0.000506586
0.00051155
8.61697e-10
0.000511544
1.57403e-08
0.000511547
1.62723e-08
0.000511547
3.31486e-08
0.000511547
4.47629e-08
0.000511541
4.98534e-08
0.000511536
6.01469e-08
0.000511532
5.92162e-08
0.000511534
8.36708e-08
0.000511529
9.11112e-08
0.000511526
1.12636e-07
0.000511514
1.15835e-07
0.00051151
1.25074e-07
0.000511501
1.43276e-07
0.000511498
1.53514e-07
0.000511489
1.89049e-07
0.00051148
1.92075e-07
0.00051147
2.29859e-07
0.000511455
2.30861e-07
0.000511447
2.71877e-07
0.000511429
2.85454e-07
0.000511421
3.3038e-07
0.0005114
3.59104e-07
0.000511387
4.0462e-07
0.000511365
4.45565e-07
0.000511346
4.95916e-07
0.000511323
5.51848e-07
0.000511299
6.16016e-07
0.000511275
6.9118e-07
0.000511249
7.74379e-07
0.000511221
8.73292e-07
0.000511194
9.76751e-07
0.000511165
1.10676e-06
0.000511142
1.23377e-06
0.000511116
1.40109e-06
0.0005111
1.55667e-06
0.000511085
1.76134e-06
0.000511079
1.95395e-06
0.000511083
2.18755e-06
2.41739e-06
0.000511093
0.000516057
2.4423e-10
0.000516054
1.85409e-08
0.000516053
1.77045e-08
0.000516055
3.11877e-08
0.000516054
4.53607e-08
0.000516052
5.21937e-08
0.000516046
6.61043e-08
0.000516041
6.40726e-08
0.000516041
8.4017e-08
0.000516037
9.44058e-08
0.000516036
1.14296e-07
0.000516025
1.26214e-07
0.00051602
1.30948e-07
0.000516011
1.5201e-07
0.000516006
1.58631e-07
0.000516
1.94726e-07
0.000515989
2.03114e-07
0.000515982
2.37154e-07
0.000515965
2.4724e-07
0.000515958
2.79634e-07
0.00051594
3.02529e-07
0.000515931
3.40036e-07
0.000515913
3.76561e-07
0.000515898
4.19866e-07
0.000515879
4.64319e-07
0.000515859
5.1635e-07
0.000515839
5.72276e-07
0.000515816
6.38871e-07
0.000515793
7.14258e-07
0.000515769
7.97786e-07
0.000515743
8.99699e-07
0.00051572
9.99771e-07
0.000515693
1.13356e-06
0.000515672
1.25455e-06
0.000515651
1.42195e-06
0.000515636
1.57231e-06
0.000515627
1.77035e-06
0.000515621
1.95979e-06
0.000515629
2.17938e-06
2.40634e-06
0.00051564
0.000520603
1.1844e-09
0.000520604
1.78275e-08
0.0005206
2.21527e-08
0.000520602
2.90736e-08
0.000520601
4.65016e-08
0.0005206
5.27044e-08
0.000520596
7.05007e-08
0.00052059
7.02111e-08
0.000520588
8.53869e-08
0.000520584
9.8146e-08
0.000520584
1.15031e-07
0.000520576
1.34027e-07
0.000520569
1.38239e-07
0.000520561
1.5947e-07
0.000520553
1.66656e-07
0.00052055
1.98224e-07
0.000520538
2.14461e-07
0.000520532
2.43374e-07
0.000520517
2.62577e-07
0.000520507
2.89025e-07
0.000520493
3.17322e-07
0.000520481
3.52087e-07
0.000520466
3.90743e-07
0.00052045
4.36315e-07
0.000520433
4.80824e-07
0.000520413
5.36296e-07
0.000520394
5.92027e-07
0.000520373
6.59609e-07
0.00052035
7.36936e-07
0.00052033
8.18254e-07
0.000520305
9.24257e-07
0.000520285
1.02049e-06
0.000520262
1.15655e-06
0.000520242
1.27421e-06
0.000520226
1.4378e-06
0.000520211
1.58706e-06
0.000520207
1.77479e-06
0.000520203
1.96395e-06
0.000520213
2.16887e-06
2.39307e-06
0.000520226
0.00052519
3.16539e-09
0.000525193
1.51155e-08
0.000525188
2.71195e-08
0.000525189
2.85238e-08
0.000525188
4.74106e-08
0.000525187
5.33751e-08
0.000525185
7.2453e-08
0.000525178
7.69017e-08
0.000525176
8.76216e-08
0.000525172
1.02338e-07
0.000525171
1.16195e-07
0.000525166
1.38996e-07
0.000525158
1.46361e-07
0.000525152
1.65536e-07
0.000525142
1.76508e-07
0.000525138
2.01526e-07
0.000525128
2.24643e-07
0.000525122
2.50076e-07
0.000525109
2.75221e-07
0.000525097
3.00599e-07
0.000525085
3.2963e-07
0.000525071
3.66097e-07
0.000525059
4.02861e-07
0.000525043
4.52512e-07
0.000525027
4.96495e-07
0.000525009
5.54349e-07
0.000524989
6.11896e-07
0.000524971
6.779e-07
0.000524949
7.59048e-07
0.00052493
8.36563e-07
0.000524908
9.46161e-07
0.000524889
1.03985e-06
0.00052487
1.17522e-06
0.000524852
1.29298e-06
0.00052484
1.44922e-06
0.000524827
1.60029e-06
0.000524826
1.77597e-06
0.000524824
1.9654e-06
0.000524836
2.15727e-06
2.3768e-06
0.000524852
0.000529818
5.28119e-09
0.000529821
1.24327e-08
0.000529818
3.04469e-08
0.000529816
3.04393e-08
0.000529816
4.76199e-08
0.000529814
5.52162e-08
0.000529814
7.25253e-08
0.000529808
8.29607e-08
0.000529804
9.08928e-08
0.0005298
1.06317e-07
0.000529798
1.18957e-07
0.000529795
1.41502e-07
0.000529787
1.54538e-07
0.000529782
1.70721e-07
0.000529772
1.86461e-07
0.000529767
2.06314e-07
0.000529759
2.32814e-07
0.000529751
2.58031e-07
0.000529741
2.84905e-07
0.000529728
3.1349e-07
0.000529718
3.40451e-07
0.000529703
3.80493e-07
0.000529691
4.14731e-07
0.000529677
4.67038e-07
0.000529661
5.12273e-07
0.000529645
5.70013e-07
0.000529626
6.31587e-07
0.000529609
6.9446e-07
0.000529589
7.79596e-07
0.000529571
8.5393e-07
0.000529553
9.64689e-07
0.000529534
1.05833e-06
0.00052952
1.18985e-06
0.000529502
1.31021e-06
0.000529494
1.45752e-06
0.000529483
1.6109e-06
0.000529484
1.77537e-06
0.000529486
1.96335e-06
0.000529498
2.14518e-06
2.35757e-06
0.000529517
0.000534488
6.75874e-09
0.000534489
1.12676e-08
0.000534488
3.12927e-08
0.000534485
3.42915e-08
0.000534485
4.75237e-08
0.000534482
5.79851e-08
0.000534482
7.21192e-08
0.000534478
8.7379e-08
0.000534474
9.52706e-08
0.00053447
1.09657e-07
0.000534466
1.23351e-07
0.000534465
1.4285e-07
0.000534457
1.61744e-07
0.000534452
1.75986e-07
0.000534443
1.95034e-07
0.000534437
2.13168e-07
0.00053443
2.3909e-07
0.000534421
2.67079e-07
0.000534414
2.92516e-07
0.000534401
3.26201e-07
0.00053439
3.5097e-07
0.000534377
3.93795e-07
0.000534364
4.27505e-07
0.000534352
4.79379e-07
0.000534336
5.28226e-07
0.000534322
5.83589e-07
0.000534304
6.50283e-07
0.000534288
7.10115e-07
0.00053427
7.97774e-07
0.000534253
8.7103e-07
0.000534238
9.7978e-07
0.00053422
1.07586e-06
0.000534209
1.20115e-06
0.000534194
1.32518e-06
0.000534188
1.46375e-06
0.00053418
1.61823e-06
0.000534182
1.77383e-06
0.000534188
1.95766e-06
0.0005342
2.13276e-06
2.33573e-06
0.000534222
0.000539199
7.24679e-09
0.000539199
1.20868e-08
0.0005392
3.01672e-08
0.000539195
3.85358e-08
0.000539195
4.80551e-08
0.000539192
6.07644e-08
0.000539192
7.25863e-08
0.000539189
8.97959e-08
0.000539184
1.00374e-07
0.000539181
1.12636e-07
0.000539176
1.28441e-07
0.000539174
1.44631e-07
0.000539169
1.67145e-07
0.000539163
1.82009e-07
0.000539156
2.0169e-07
0.000539148
2.21562e-07
0.000539143
2.44376e-07
0.000539133
2.76286e-07
0.000539126
2.99495e-07
0.000539115
3.37365e-07
0.000539104
3.6193e-07
0.000539093
4.05276e-07
0.000539079
4.41173e-07
0.000539068
4.90104e-07
0.000539053
5.43603e-07
0.000539041
5.95968e-07
0.000539024
6.67007e-07
0.000539009
7.25411e-07
0.000538993
8.1334e-07
0.000538976
8.87711e-07
0.000538964
9.92152e-07
0.000538948
1.09175e-06
0.000538939
1.21014e-06
0.000538927
1.33726e-06
0.000538922
1.46851e-06
0.000538918
1.62227e-06
0.000538921
1.77142e-06
0.000538929
1.94891e-06
0.000538943
2.11959e-06
2.31193e-06
0.000538966
0.000543952
6.92352e-09
0.00054395
1.42953e-08
0.000543952
2.83907e-08
0.000543948
4.16984e-08
0.000543947
4.97456e-08
0.000543945
6.29015e-08
0.000543943
7.44832e-08
0.000543942
9.07404e-08
0.000543937
1.05339e-07
0.000543934
1.15861e-07
0.000543929
1.33189e-07
0.000543926
1.47825e-07
0.000543922
1.70671e-07
0.000543915
1.88767e-07
0.00054391
2.06827e-07
0.000543901
2.30403e-07
0.000543896
2.49693e-07
0.000543888
2.84666e-07
0.00054388
3.07011e-07
0.000543871
3.46356e-07
0.00054386
3.73435e-07
0.00054385
4.14942e-07
0.000543836
4.55026e-07
0.000543826
5.00103e-07
0.000543812
5.5759e-07
0.0005438
6.07962e-07
0.000543786
6.81106e-07
0.000543771
7.40503e-07
0.000543758
8.2638e-07
0.000543742
9.03534e-07
0.000543732
1.00257e-06
0.000543718
1.10537e-06
0.00054371
1.21768e-06
0.000543702
1.34603e-06
0.000543698
1.47219e-06
0.000543697
1.62309e-06
0.000543701
1.76804e-06
0.000543712
1.93778e-06
0.000543726
2.10523e-06
2.28692e-06
0.000543751
0.000548746
6.31465e-09
0.000548744
1.66592e-08
0.000548745
2.73868e-08
0.000548743
4.31094e-08
0.000548741
5.23382e-08
0.000548739
6.44861e-08
0.000548736
7.73249e-08
0.000548736
9.13472e-08
0.000548732
1.09253e-07
0.000548728
1.19757e-07
0.000548724
1.37087e-07
0.000548719
1.52402e-07
0.000548717
1.73038e-07
0.00054871
1.95541e-07
0.000548706
2.11419e-07
0.000548697
2.3858e-07
0.000548691
2.55745e-07
0.000548684
2.91721e-07
0.000548676
3.15363e-07
0.000548669
3.53529e-07
0.000548657
3.84914e-07
0.000548649
4.23398e-07
0.000548636
4.68097e-07
0.000548626
5.10042e-07
0.000548613
5.69845e-07
0.000548602
6.19797e-07
0.00054859
6.92672e-07
0.000548576
7.54966e-07
0.000548565
8.37304e-07
0.00054855
9.18004e-07
0.000548541
1.01151e-06
0.00054853
1.11652e-06
0.000548524
1.22403e-06
0.000548518
1.3516e-06
0.000548516
1.47479e-06
0.000548518
1.6209e-06
0.000548522
1.76363e-06
0.000548535
1.92464e-06
0.000548551
2.08953e-06
2.26112e-06
0.000548577
0.000553582
5.90762e-09
0.00055358
1.82183e-08
0.00055358
2.78146e-08
0.00055358
4.30869e-08
0.000553577
5.50824e-08
0.000553575
6.59879e-08
0.000553572
8.02217e-08
0.000553571
9.26645e-08
0.000553569
1.11675e-07
0.000553564
1.24274e-07
0.000553561
1.40177e-07
0.000553556
1.57733e-07
0.000553554
1.75233e-07
0.000553548
2.01486e-07
0.000553543
2.16333e-07
0.000553536
2.45365e-07
0.000553529
2.62765e-07
0.000553523
2.97458e-07
0.000553514
3.24182e-07
0.000553508
3.59719e-07
0.000553498
3.95573e-07
0.00055349
4.31445e-07
0.000553478
4.79546e-07
0.000553468
5.20258e-07
0.000553457
5.80348e-07
0.000553446
6.31359e-07
0.000553436
7.0223e-07
0.000553423
7.68108e-07
0.000553414
8.46721e-07
0.000553401
9.30565e-07
0.000553393
1.01934e-06
0.000553385
1.1252e-06
0.000553379
1.22916e-06
0.000553377
1.35442e-06
0.000553375
1.47599e-06
0.00055338
1.61618e-06
0.000553386
1.75783e-06
0.000553401
1.90991e-06
0.000553418
2.07242e-06
2.23472e-06
0.000553444
0.00055846
5.90107e-09
0.000558459
1.87583e-08
0.000558458
2.931e-08
0.000558458
4.26655e-08
0.000558456
5.71859e-08
0.000558454
6.78284e-08
0.000558452
8.25444e-08
0.000558449
9.50477e-08
0.000558448
1.12915e-07
0.000558444
1.28885e-07
0.000558441
1.42877e-07
0.000558436
1.6301e-07
0.000558433
1.77984e-07
0.000558428
2.0617e-07
0.000558423
2.21834e-07
0.000558417
2.50699e-07
0.00055841
2.70414e-07
0.000558405
3.02297e-07
0.000558396
3.32822e-07
0.00055839
3.65645e-07
0.000558381
4.04958e-07
0.000558373
4.39506e-07
0.000558363
4.89084e-07
0.000558353
5.30628e-07
0.000558344
5.89279e-07
0.000558333
6.4247e-07
0.000558325
7.10266e-07
0.000558313
7.79523e-07
0.000558305
8.54996e-07
0.000558295
9.40858e-07
0.000558288
1.02637e-06
0.000558282
1.13133e-06
0.000558278
1.23315e-06
0.000558277
1.35479e-06
0.000558278
1.47555e-06
0.000558285
1.60947e-06
0.000558292
1.75015e-06
0.000558308
1.89414e-06
0.000558327
2.05358e-06
2.20803e-06
0.000558354
0.000563381
6.18155e-09
0.000563381
1.86937e-08
0.000563379
3.09973e-08
0.000563379
4.28633e-08
0.000563378
5.8265e-08
0.000563376
7.01086e-08
0.000563374
8.41405e-08
0.000563371
9.81848e-08
0.00056337
1.13748e-07
0.000563366
1.32913e-07
0.000563363
1.45692e-07
0.000563359
1.67552e-07
0.000563355
1.81628e-07
0.000563352
2.09645e-07
0.000563346
2.27639e-07
0.000563342
2.55043e-07
0.000563334
2.7798e-07
0.000563329
3.06886e-07
0.000563322
3.40612e-07
0.000563315