/*--------------------------------*- C++ -*----------------------------------*\
| =========                 |                                                 |
| \\      /  F ield         | OpenFOAM: The Open Source CFD Toolbox           |
|  \\    /   O peration     | Version:  v2012                                 |
|   \\  /    A nd           | Website:  www.openfoam.com                      |
|    \\/     M anipulation  |                                                 |
\*---------------------------------------------------------------------------*/
FoamFile
{
    version     2.0;
    format      ascii;
    class       volVectorField;
    location    "0.1";
    object      U;
}
// * * * * * * * * * * * * * * * * * * * * * * * * * * * * * * * * * * * * * //

dimensions      [0 1 -1 0 0 0 0];


internalField   nonuniform List<vector> 
9600
(
(49.7217 -0.000359458 0)
(50.2844 -0.00157572 0)
(49.7133 0.000376858 0)
(50.2896 -0.000579741 0)
(49.7083 0.00136701 0)
(50.2946 -0.000545435 0)
(49.7046 0.00138325 0)
(50.2981 -0.00111711 0)
(49.701 0.00140085 0)
(50.2998 -0.00141454 0)
(49.6976 0.0016611 0)
(50.3001 -0.00160947 0)
(49.6946 0.00202131 0)
(50.2996 -0.00183457 0)
(49.6923 0.00237015 0)
(50.2979 -0.0021123 0)
(49.6904 0.00271194 0)
(50.2948 -0.0024071 0)
(49.6888 0.00307393 0)
(50.2902 -0.00268581 0)
(49.6876 0.00345102 0)
(50.2837 -0.00295635 0)
(49.6869 0.00385004 0)
(50.2754 -0.00321477 0)
(49.6863 0.00427748 0)
(50.2651 -0.00347322 0)
(49.6849 0.0047422 0)
(50.2528 -0.00369859 0)
(49.6821 0.00526494 0)
(50.2384 -0.00390889 0)
(49.6766 0.00587101 0)
(50.2215 -0.00408284 0)
(49.6669 0.00658449 0)
(50.201 -0.00426985 0)
(49.6503 0.00741227 0)
(50.1746 -0.00437083 0)
(49.6223 0.00931417 0)
(50.137 -0.00170608 0)
(49.5751 0.0204511 0)
(50.0807 0.0240828 0)
(49.9192 0.000203602 0)
(50.0776 -0.0032816 0)
(49.9218 0.00151673 0)
(50.0729 -0.00175749 0)
(49.9263 0.00330804 0)
(50.0677 -0.0016874 0)
(49.9321 0.00335224 0)
(50.0617 -0.00265459 0)
(49.9382 0.00327339 0)
(50.0542 -0.00313981 0)
(49.944 0.00364137 0)
(50.0456 -0.00334689 0)
(49.9501 0.00419346 0)
(50.0364 -0.00354681 0)
(49.9567 0.00471214 0)
(50.0263 -0.0037992 0)
(49.9634 0.00518099 0)
(50.015 -0.00404252 0)
(49.9703 0.00564623 0)
(50.0023 -0.004207 0)
(49.9771 0.00611948 0)
(49.9882 -0.00429319 0)
(49.9837 0.00658058 0)
(49.9731 -0.00426109 0)
(49.9895 0.00701131 0)
(49.9569 -0.00410646 0)
(49.9935 0.00740298 0)
(49.9398 -0.00375071 0)
(49.9947 0.00782568 0)
(49.922 -0.00322379 0)
(49.992 0.00833561 0)
(49.9028 -0.0024976 0)
(49.9842 0.00902041 0)
(49.8807 -0.00138387 0)
(49.9691 0.0104675 0)
(49.8532 0.00110359 0)
(49.9439 0.0157768 0)
(49.8167 0.012687 0)
(49.9073 0.0418052 0)
(49.7745 0.06634 0)
(50.0036 0.00105986 0)
(49.9922 -0.00296406 0)
(50.0071 0.00194 0)
(49.9873 -0.0022105 0)
(50.0108 0.00331822 0)
(49.9826 -0.00202165 0)
(50.015 0.00351792 0)
(49.9782 -0.00251715 0)
(50.0188 0.00336219 0)
(49.9734 -0.00279839 0)
(50.0217 0.00350393 0)
(49.9683 -0.00275634 0)
(50.024 0.00384932 0)
(49.9633 -0.00265231 0)
(50.0261 0.00420817 0)
(49.9583 -0.00260168 0)
(50.0276 0.00455426 0)
(49.9529 -0.00258751 0)
(50.0285 0.00496482 0)
(49.947 -0.00255572 0)
(50.0284 0.00549769 0)
(49.9405 -0.00245749 0)
(50.0272 0.00606867 0)
(49.9339 -0.00216556 0)
(50.0244 0.00660101 0)
(49.927 -0.00162174 0)
(50.0192 0.00710231 0)
(49.9197 -0.000809217 0)
(50.0108 0.00752307 0)
(49.9119 0.000399016 0)
(49.9985 0.00802399 0)
(49.9026 0.00207113 0)
(49.9815 0.00885826 0)
(49.8902 0.00490972 0)
(49.9583 0.0113339 0)
(49.8723 0.011373 0)
(49.9276 0.0203444 0)
(49.8475 0.0310299 0)
(49.891 0.0507319 0)
(49.8211 0.0836403 0)
(50.0246 0.00199662 0)
(49.9731 -0.0031939 0)
(50.0263 0.00246332 0)
(49.9705 -0.00286807 0)
(50.0273 0.00338028 0)
(49.9683 -0.00249101 0)
(50.0284 0.00374831 0)
(49.9666 -0.00247854 0)
(50.0291 0.00363139 0)
(49.9647 -0.00251585 0)
(50.0288 0.00360195 0)
(49.9626 -0.002283 0)
(50.028 0.00374658 0)
(49.9606 -0.00195456 0)
(50.027 0.00395604 0)
(49.9586 -0.0016297 0)
(50.0254 0.00419045 0)
(49.9562 -0.00131387 0)
(50.0231 0.00447986 0)
(49.9534 -0.000935888 0)
(50.02 0.00484225 0)
(49.95 -0.000411104 0)
(50.0158 0.00524192 0)
(49.9463 0.00040566 0)
(50.0105 0.00558938 0)
(49.9419 0.0015476 0)
(50.0031 0.00594867 0)
(49.9365 0.00299951 0)
(49.9934 0.00635792 0)
(49.9297 0.00487782 0)
(49.9809 0.00711705 0)
(49.9205 0.007367 0)
(49.9647 0.0088189 0)
(49.9076 0.0114985 0)
(49.9437 0.0131971 0)
(49.8894 0.0205879 0)
(49.9175 0.0256509 0)
(49.8659 0.0426488 0)
(49.8886 0.0568903 0)
(49.8423 0.0896164 0)
(50.0203 0.00186926 0)
(49.979 -0.00242869 0)
(50.0206 0.00217579 0)
(49.9779 -0.00230882 0)
(50.0202 0.00280466 0)
(49.977 -0.00197676 0)
(50.0198 0.00326527 0)
(49.9765 -0.00179534 0)
(50.0192 0.00334519 0)
(49.9757 -0.00174469 0)
(50.0179 0.00339138 0)
(49.9745 -0.00154556 0)
(50.0162 0.00359231 0)
(49.9732 -0.0012515 0)
(50.0144 0.00391804 0)
(49.9717 -0.000904225 0)
(50.0122 0.00430449 0)
(49.9698 -0.000494603 0)
(50.0094 0.00465091 0)
(49.9674 0.000117196 0)
(50.0058 0.00490714 0)
(49.9643 0.00103882 0)
(50.0015 0.00509768 0)
(49.9605 0.00236572 0)
(49.9962 0.00515703 0)
(49.9559 0.00412876 0)
(49.9894 0.00518342 0)
(49.9499 0.00638602 0)
(49.9807 0.00541167 0)
(49.942 0.00914353 0)
(49.9696 0.00623156 0)
(49.9316 0.0127471 0)
(49.9553 0.00857841 0)
(49.9176 0.0183768 0)
(49.9369 0.0146405 0)
(49.8993 0.0293773 0)
(49.9145 0.0293585 0)
(49.8773 0.052073 0)
(49.891 0.0608209 0)
(49.8569 0.0945774 0)
(50.0116 0.00195222 0)
(49.9884 -0.00221244 0)
(50.0114 0.00224607 0)
(49.9878 -0.00195333 0)
(50.0107 0.00262929 0)
(49.9872 -0.00164286 0)
(50.0099 0.00290751 0)
(49.9869 -0.00130839 0)
(50.0091 0.00303074 0)
(49.9862 -0.00101986 0)
(50.0076 0.00305826 0)
(49.9851 -0.000672218 0)
(50.0059 0.00317047 0)
(49.9838 -0.000211785 0)
(50.0041 0.00336082 0)
(49.9823 0.000365089 0)
(50.0019 0.00361083 0)
(49.9803 0.00108445 0)
(49.9992 0.00383354 0)
(49.9776 0.00203601 0)
(49.9958 0.00396531 0)
(49.9742 0.00333416 0)
(49.9917 0.00404275 0)
(49.9702 0.00501633 0)
(49.9869 0.00410001 0)
(49.9652 0.00710545 0)
(49.9806 0.00432053 0)
(49.9586 0.00962535 0)
(49.9726 0.00500611 0)
(49.9502 0.0126156 0)
(49.9625 0.00667285 0)
(49.9393 0.0165585 0)
(49.9493 0.0104211 0)
(49.9253 0.02279 0)
(49.9325 0.0185556 0)
(49.9079 0.0344407 0)
(49.9126 0.0353556 0)
(49.8883 0.05676 0)
(49.8927 0.0668606 0)
(49.8713 0.0955521 0)
(50.0056 0.00197228 0)
(49.9946 -0.00240182 0)
(50.0055 0.00249024 0)
(49.9941 -0.00183109 0)
(50.0047 0.00279086 0)
(49.9935 -0.00152362 0)
(50.004 0.00281932 0)
(49.9931 -0.00102514 0)
(50.0032 0.00286735 0)
(49.9924 -0.000396298 0)
(50.0018 0.00280519 0)
(49.9911 0.000261752 0)
(50.0001 0.00269744 0)
(49.9898 0.00103487 0)
(49.9984 0.0026125 0)
(49.9881 0.00193882 0)
(49.9963 0.00260393 0)
(49.9859 0.00303681 0)
(49.9937 0.00266486 0)
(49.9831 0.00431546 0)
(49.9904 0.00276937 0)
(49.9796 0.00584165 0)
(49.9866 0.00295627 0)
(49.9754 0.00763083 0)
(49.982 0.00333396 0)
(49.9702 0.00970487 0)
(49.976 0.00410789 0)
(49.9634 0.0121163 0)
(49.9684 0.00563128 0)
(49.9549 0.0149721 0)
(49.9587 0.00850528 0)
(49.9442 0.0188413 0)
(49.9462 0.0138896 0)
(49.9307 0.0252139 0)
(49.9307 0.0239727 0)
(49.9147 0.0370619 0)
(49.9128 0.0423891 0)
(49.8974 0.058767 0)
(49.8956 0.0734931 0)
(49.8834 0.0944241 0)
(50.0027 0.00174823 0)
(49.9977 -0.00223487 0)
(50.0029 0.00224626 0)
(49.9971 -0.00120258 0)
(50.002 0.00246212 0)
(49.9964 -0.000696977 0)
(50.0014 0.00213371 0)
(49.996 -2.70492e-05 0)
(50.0006 0.00199114 0)
(49.9951 0.000910745 0)
(49.9993 0.00182233 0)
(49.9938 0.00183968 0)
(49.9977 0.00160508 0)
(49.9923 0.00281849 0)
(49.996 0.00143351 0)
(49.9906 0.00385627 0)
(49.994 0.00143375 0)
(49.9883 0.00503982 0)
(49.9914 0.00163466 0)
(49.9855 0.0063239 0)
(49.9882 0.00206131 0)
(49.9819 0.0077101 0)
(49.9844 0.00273453 0)
(49.9777 0.0092187 0)
(49.9799 0.00378799 0)
(49.9724 0.0109193 0)
(49.9741 0.00542557 0)
(49.9657 0.0129588 0)
(49.9667 0.00797008 0)
(49.9573 0.0155732 0)
(49.9573 0.0120281 0)
(49.9469 0.0194681 0)
(49.9454 0.0187451 0)
(49.9343 0.0262069 0)
(49.9309 0.0301298 0)
(49.9196 0.0385051 0)
(49.9148 0.0492118 0)
(49.9045 0.0599385 0)
(49.9 0.0792078 0)
(49.8929 0.0933153 0)
(50.0015 0.00133602 0)
(49.9991 -0.00166153 0)
(50.0021 0.0014987 0)
(49.9984 -0.000189484 0)
(50.0011 0.00165334 0)
(49.9975 0.000638623 0)
(50.0006 0.00102267 0)
(49.9971 0.00135961 0)
(49.9999 0.000701283 0)
(49.9962 0.00252363 0)
(49.9986 0.000571742 0)
(49.9948 0.00358948 0)
(49.997 0.000447721 0)
(49.9933 0.00452665 0)
(49.9954 0.000489538 0)
(49.9916 0.00540433 0)
(49.9933 0.000858997 0)
(49.9893 0.00629719 0)
(49.9908 0.00156134 0)
(49.9865 0.00722851 0)
(49.9876 0.00257721 0)
(49.9829 0.00823274 0)
(49.9837 0.0038953 0)
(49.9787 0.00937292 0)
(49.9793 0.00562855 0)
(49.9735 0.0107868 0)
(49.9735 0.00797815 0)
(49.9669 0.0126808 0)
(49.9663 0.0112733 0)
(49.9588 0.0153962 0)
(49.9571 0.016115 0)
(49.9488 0.0197282 0)
(49.9458 0.0235953 0)
(49.9369 0.0272136 0)
(49.9324 0.0355256 0)
(49.9235 0.0402319 0)
(49.9179 0.0544819 0)
(49.9102 0.0616652 0)
(49.9051 0.0829205 0)
(49.9005 0.0934525 0)
(50.0012 0.000604137 0)
(49.9996 -0.000390147 0)
(50.0021 0.000186409 0)
(49.999 0.00116936 0)
(50.001 0.000458936 0)
(49.998 0.00230347 0)
(50.0005 -0.000133283 0)
(49.9976 0.00285666 0)
(50 -0.000484753 0)
(49.9968 0.003869 0)
(49.9986 -0.000255881 0)
(49.9954 0.00482317 0)
(49.997 3.06372e-05 0)
(49.9939 0.00541814 0)
(49.9953 0.000529968 0)
(49.9922 0.0058942 0)
(49.9933 0.00142396 0)
(49.99 0.00636533 0)
(49.9907 0.00267599 0)
(49.9872 0.00692627 0)
(49.9875 0.00422941 0)
(49.9837 0.0076725 0)
(49.9837 0.00603903 0)
(49.9795 0.00868863 0)
(49.9792 0.00818304 0)
(49.9744 0.0101469 0)
(49.9736 0.0108783 0)
(49.9679 0.0122921 0)
(49.9665 0.0144834 0)
(49.96 0.0155244 0)
(49.9577 0.0196182 0)
(49.9504 0.0206295 0)
(49.9469 0.0273716 0)
(49.9393 0.0290144 0)
(49.9345 0.0394172 0)
(49.9271 0.042769 0)
(49.9215 0.0579151 0)
(49.9154 0.0642468 0)
(49.9105 0.0846516 0)
(49.9072 0.0948142 0)
(50.001 -0.000241641 0)
(49.9997 0.00126071 0)
(50.0021 -0.00116996 0)
(49.9993 0.00221499 0)
(50.0011 -0.000690846 0)
(49.9982 0.00356976 0)
(50.0005 -0.000764715 0)
(49.9979 0.00383857 0)
(50.0001 -0.000964069 0)
(49.9972 0.00435001 0)
(49.9988 -0.000256789 0)
(49.9958 0.00501214 0)
(49.9971 0.000610582 0)
(49.9943 0.00521067 0)
(49.9954 0.00157785 0)
(49.9927 0.00532803 0)
(49.9934 0.00290059 0)
(49.9906 0.0055852 0)
(49.9908 0.00450051 0)
(49.9879 0.0060425 0)
(49.9876 0.0063169 0)
(49.9844 0.00682216 0)
(49.9839 0.00830706 0)
(49.9802 0.00804209 0)
(49.9795 0.0105335 0)
(49.9752 0.00990293 0)
(49.974 0.0132202 0)
(49.9688 0.0126396 0)
(49.9671 0.0168005 0)
(49.9612 0.0166146 0)
(49.9586 0.0219873 0)
(49.952 0.0225462 0)
(49.9485 0.0298815 0)
(49.9416 0.0316962 0)
(49.937 0.0420046 0)
(49.9305 0.045918 0)
(49.9254 0.0600797 0)
(49.9202 0.0671946 0)
(49.916 0.0852875 0)
(49.9133 0.0965101 0)
(50.0009 -0.000901069 0)
(49.9994 0.00256503 0)
(50.0019 -0.00185832 0)
(49.9994 0.00253984 0)
(50.0011 -0.00128988 0)
(49.9983 0.00388081 0)
(50.0003 -0.000554527 0)
(49.9979 0.00393639 0)
(50 -0.000456262 0)
(49.9975 0.00386854 0)
(49.9988 0.00060587 0)
(49.9961 0.00429563 0)
(49.9971 0.00195849 0)
(49.9947 0.00435023 0)
(49.9954 0.00320239 0)
(49.9932 0.00433889 0)
(49.9934 0.0046836 0)
(49.9911 0.00466176 0)
(49.9909 0.00636072 0)
(49.9885 0.0053414 0)
(49.9878 0.00812387 0)
(49.985 0.00645658 0)
(49.9842 0.00996723 0)
(49.9809 0.00814055 0)
(49.98 0.012031 0)
(49.976 0.0105769 0)
(49.9747 0.0145987 0)
(49.9698 0.0139249 0)
(49.968 0.0181744 0)
(49.9624 0.0185147 0)
(49.9599 0.023522 0)
(49.9538 0.0250427 0)
(49.9504 0.031671 0)
(49.9441 0.0346984 0)
(49.9398 0.0439115 0)
(49.9341 0.04915 0)
(49.9294 0.0615679 0)
(49.9249 0.0700807 0)
(49.9214 0.0854519 0)
(49.9191 0.0980555 0)
(50.0009 -0.00112984 0)
(49.9991 0.00294374 0)
(50.0014 -0.0015737 0)
(49.9994 0.0022173 0)
(50.001 -0.00110667 0)
(49.9984 0.00324603 0)
(49.9999 0.000345005 0)
(49.9979 0.00339682 0)
(49.9996 0.000761842 0)
(49.9976 0.00292371 0)
(49.9986 0.00185091 0)
(49.9964 0.00326122 0)
(49.9969 0.00346856 0)
(49.995 0.00349955 0)
(49.9953 0.00477119 0)
(49.9935 0.00360705 0)
(49.9934 0.00609167 0)
(49.9915 0.00417574 0)
(49.991 0.00762793 0)
(49.9889 0.00527572 0)
(49.9881 0.00919652 0)
(49.9855 0.00687627 0)
(49.9845 0.0107837 0)
(49.9815 0.00908166 0)
(49.9805 0.0126535 0)
(49.9767 0.0120351 0)
(49.9754 0.0152168 0)
(49.9707 0.0158217 0)
(49.969 0.0189953 0)
(49.9637 0.0207555 0)
(49.9613 0.0247147 0)
(49.9556 0.0275739 0)
(49.9524 0.0332644 0)
(49.9467 0.0374676 0)
(49.9427 0.0456559 0)
(49.9376 0.0519711 0)
(49.9335 0.0629041 0)
(49.9295 0.072459 0)
(49.9267 0.0856504 0)
(49.9247 0.0990762 0)
(50.0008 -0.000952977 0)
(49.9989 0.00241786 0)
(50.0008 -0.000651577 0)
(49.9993 0.00156359 0)
(50.0007 -0.000411691 0)
(49.9985 0.00214345 0)
(49.9996 0.00141219 0)
(49.9978 0.00265033 0)
(49.9991 0.00215107 0)
(49.9976 0.00213165 0)
(49.9983 0.00294981 0)
(49.9966 0.0024515 0)
(49.9967 0.00454467 0)
(49.9951 0.00308112 0)
(49.995 0.00580827 0)
(49.9936 0.0035069 0)
(49.9933 0.00685021 0)
(49.9917 0.00437414 0)
(49.9911 0.00815113 0)
(49.9891 0.00590577 0)
(49.9882 0.00954968 0)
(49.9858 0.00794455 0)
(49.9849 0.0109948 0)
(49.9819 0.0105079 0)
(49.981 0.0128513 0)
(49.9773 0.0137407 0)
(49.9761 0.0156432 0)
(49.9716 0.0177327 0)
(49.9699 0.0198285 0)
(49.965 0.0228074 0)
(49.9626 0.0260035 0)
(49.9575 0.0297879 0)
(49.9543 0.0348991 0)
(49.9493 0.0398681 0)
(49.9456 0.0473231 0)
(49.9411 0.0543853 0)
(49.9375 0.0641487 0)
(49.934 0.0743225 0)
(49.9318 0.0859797 0)
(49.9301 0.0995142 0)
(50.0006 -0.00051712 0)
(49.9989 0.00142561 0)
(50.0003 0.000392158 0)
(49.9991 0.00101521 0)
(50.0005 0.000473145 0)
(49.9987 0.00117966 0)
(49.9994 0.00212618 0)
(49.9978 0.00208079 0)
(49.9987 0.00317519 0)
(49.9975 0.00184153 0)
(49.998 0.00364184 0)
(49.9967 0.00214044 0)
(49.9965 0.0050194 0)
(49.9951 0.0031537 0)
(49.9948 0.00627001 0)
(49.9936 0.00395471 0)
(49.9931 0.00709696 0)
(49.9918 0.00505977 0)
(49.9911 0.00817244 0)
(49.9892 0.00693301 0)
(49.9884 0.00949982 0)
(49.9859 0.00930968 0)
(49.9851 0.0109882 0)
(49.9822 0.0120451 0)
(49.9814 0.013041 0)
(49.9778 0.0153101 0)
(49.9767 0.0162403 0)
(49.9724 0.0193093 0)
(49.9708 0.0209376 0)
(49.9662 0.0244355 0)
(49.9639 0.02753 0)
(49.9592 0.0315778 0)
(49.9562 0.0366303 0)
(49.9517 0.0418743 0)
(49.9484 0.0489616 0)
(49.9444 0.0563884 0)
(49.9413 0.0653532 0)
(49.9383 0.075718 0)
(49.9366 0.0863817 0)
(49.9352 0.0995414 0)
(50.0005 -0.000115417 0)
(49.999 0.000531447 0)
(50 0.00110797 0)
(49.999 0.000791728 0)
(50.0002 0.00123679 0)
(49.9989 0.000681135 0)
(49.9993 0.00236338 0)
(49.9979 0.00179967 0)
(49.9984 0.00366428 0)
(49.9975 0.00204053 0)
(49.9978 0.00397543 0)
(49.9967 0.00230217 0)
(49.9964 0.00504448 0)
(49.9952 0.00355658 0)
(49.9947 0.00632968 0)
(49.9935 0.00473608 0)
(49.993 0.00708638 0)
(49.9918 0.00600578 0)
(49.9911 0.00800842 0)
(49.9893 0.00804226 0)
(49.9885 0.00940109 0)
(49.9861 0.0105875 0)
(49.9853 0.0111346 0)
(49.9824 0.0133271 0)
(49.9817 0.0135264 0)
(49.9783 0.0164879 0)
(49.9772 0.0171455 0)
(49.9733 0.0204858 0)
(49.9715 0.0222588 0)
(49.9674 0.0257708 0)
(49.9651 0.029105 0)
(49.961 0.0331658 0)
(49.9581 0.0382622 0)
(49.9541 0.043658 0)
(49.9511 0.050486 0)
(49.9475 0.0580292 0)
(49.9449 0.066562 0)
(49.9423 0.0766348 0)
(49.941 0.0869179 0)
(49.9401 0.0991725 0)
(50.0004 0.000132992 0)
(49.9993 6.01769e-05 0)
(50 0.0013052 0)
(49.9991 0.00086656 0)
(50 0.00168564 0)
(49.999 0.000768703 0)
(49.9994 0.00228169 0)
(49.9981 0.00179694 0)
(49.9983 0.00371055 0)
(49.9975 0.00251888 0)
(49.9976 0.00414527 0)
(49.9968 0.00277529 0)
(49.9964 0.00491316 0)
(49.9953 0.00406556 0)
(49.9947 0.00621403 0)
(49.9936 0.0055894 0)
(49.993 0.00703901 0)
(49.9918 0.00701392 0)
(49.9912 0.00789013 0)
(49.9894 0.0090474 0)
(49.9887 0.00943851 0)
(49.9863 0.0115976 0)
(49.9855 0.0115625 0)
(49.9828 0.0142523 0)
(49.982 0.0143637 0)
(49.9789 0.017299 0)
(49.9776 0.0183219 0)
(49.9741 0.0213728 0)
(49.9723 0.0236806 0)
(49.9687 0.0269484 0)
(49.9663 0.0306116 0)
(49.9626 0.0346591 0)
(49.9599 0.0397224 0)
(49.9564 0.045286 0)
(49.9536 0.0518441 0)
(49.9506 0.0594013 0)
(49.9483 0.067674 0)
(49.9462 0.0772564 0)
(49.9452 0.0874132 0)
(49.9447 0.0986229 0)
(50.0003 0.000224009 0)
(49.9996 2.09451e-05 0)
(50.0001 0.00113618 0)
(49.9992 0.00106804 0)
(49.9998 0.00183035 0)
(49.9991 0.00119522 0)
(49.9994 0.00215415 0)
(49.9984 0.00193304 0)
(49.9983 0.00353339 0)
(49.9976 0.00300302 0)
(49.9975 0.0042607 0)
(49.997 0.00337314 0)
(49.9965 0.00480768 0)
(49.9956 0.00457766 0)
(49.9948 0.00606982 0)
(49.9937 0.00635049 0)
(49.9931 0.00708187 0)
(49.9919 0.00789958 0)
(49.9914 0.00799873 0)
(49.9897 0.00980281 0)
(49.9889 0.00974447 0)
(49.9866 0.012274 0)
(49.9858 0.0122658 0)
(49.9833 0.0149046 0)
(49.9823 0.015395 0)
(49.9796 0.0179696 0)
(49.9782 0.019524 0)
(49.9751 0.0222169 0)
(49.9731 0.0249857 0)
(49.9699 0.028112 0)
(49.9676 0.031976 0)
(49.9643 0.0360594 0)
(49.9618 0.0410947 0)
(49.9587 0.0466707 0)
(49.9562 0.0531638 0)
(49.9536 0.060457 0)
(49.9515 0.0687235 0)
(49.95 0.0776633 0)
(49.9491 0.0877554 0)
(49.9491 0.098095 0)
(50.0003 0.000156554 0)
(49.9997 0.000263471 0)
(50.0002 0.000844566 0)
(49.9994 0.00123819 0)
(49.9998 0.00179803 0)
(49.9992 0.00164613 0)
(49.9994 0.00218484 0)
(49.9987 0.00209932 0)
(49.9984 0.00336957 0)
(49.9978 0.00331368 0)
(49.9975 0.00438645 0)
(49.9971 0.0039546 0)
(49.9966 0.00482621 0)
(49.9958 0.00506322 0)
(49.995 0.00596338 0)
(49.9939 0.00696151 0)
(49.9933 0.00722186 0)
(49.9921 0.00860489 0)
(49.9916 0.00835864 0)
(49.99 0.0103174 0)
(49.9892 0.0103145 0)
(49.9871 0.0126714 0)
(49.9861 0.0131515 0)
(49.9838 0.0153807 0)
(49.9827 0.0164804 0)
(49.9803 0.0186313 0)
(49.9788 0.0206264 0)
(49.9761 0.0231351 0)
(49.9741 0.0260873 0)
(49.9712 0.0293118 0)
(49.969 0.0331624 0)
(49.9661 0.0373784 0)
(49.9637 0.0423728 0)
(49.961 0.0478389 0)
(49.9587 0.0544205 0)
(49.9566 0.0612606 0)
(49.9547 0.0696654 0)
(49.9536 0.0779147 0)
(49.9529 0.0879397 0)
(49.9532 0.0975853 0)
(50.0002 5.71902e-05 0)
(49.9998 0.000566744 0)
(50.0002 0.000657006 0)
(49.9996 0.00130954 0)
(49.9997 0.00174195 0)
(49.9993 0.00195264 0)
(49.9993 0.00235426 0)
(49.9989 0.00229206 0)
(49.9986 0.00330425 0)
(49.998 0.00348895 0)
(49.9975 0.00449406 0)
(49.9972 0.00447035 0)
(49.9967 0.00497801 0)
(49.9961 0.00551212 0)
(49.9953 0.00598224 0)
(49.9942 0.00737994 0)
(49.9935 0.0074934 0)
(49.9923 0.00910359 0)
(49.9917 0.00892788 0)
(49.9904 0.0106896 0)
(49.9895 0.011013 0)
(49.9877 0.0129731 0)
(49.9865 0.0140082 0)
(49.9845 0.0158611 0)
(49.9832 0.0174495 0)
(49.9811 0.0193675 0)
(49.9795 0.0215964 0)
(49.9771 0.0240855 0)
(49.9752 0.02708 0)
(49.9726 0.0304257 0)
(49.9704 0.0342896 0)
(49.9679 0.0385353 0)
(49.9656 0.043595 0)
(49.9634 0.0488438 0)
(49.9612 0.0555303 0)
(49.9596 0.0619714 0)
(49.9578 0.0703569 0)
(49.9572 0.0781721 0)
(49.9566 0.0878715 0)
(49.9572 0.0971383 0)
(50.0001 2.81332e-06 0)
(49.9999 0.000753727 0)
(50.0001 0.000661236 0)
(49.9998 0.00126381 0)
(49.9997 0.0017502 0)
(49.9994 0.00206179 0)
(49.9992 0.00258966 0)
(49.9991 0.00249917 0)
(49.9986 0.00332608 0)
(49.9983 0.00363398 0)
(49.9976 0.00452042 0)
(49.9973 0.00491542 0)
(49.9967 0.00517753 0)
(49.9962 0.00594365 0)
(49.9955 0.0061429 0)
(49.9945 0.00763463 0)
(49.9937 0.00788114 0)
(49.9926 0.00940617 0)
(49.9919 0.00962605 0)
(49.9908 0.0109947 0)
(49.9898 0.0117501 0)
(49.9883 0.0133069 0)
(49.9869 0.0147395 0)
(49.9852 0.0164484 0)
(49.9837 0.0182287 0)
(49.9819 0.020218 0)
(49.9803 0.0224255 0)
(49.9782 0.0250519 0)
(49.9763 0.0280104 0)
(49.9741 0.0314052 0)
(49.9718 0.0354012 0)
(49.9697 0.0394922 0)
(49.9675 0.0447775 0)
(49.9657 0.0496975 0)
(49.9636 0.0564866 0)
(49.9625 0.0626216 0)
(49.9609 0.0707954 0)
(49.9606 0.0784492 0)
(49.9602 0.0875624 0)
(49.9611 0.0967444 0)
(50 1.16407e-05 0)
(49.9999 0.000780125 0)
(49.9999 0.000813445 0)
(49.9999 0.0011736 0)
(49.9996 0.00180684 0)
(49.9995 0.00206037 0)
(49.9991 0.00279769 0)
(49.9991 0.00272219 0)
(49.9986 0.0034058 0)
(49.9984 0.00380012 0)
(49.9977 0.00451833 0)
(49.9974 0.00525576 0)
(49.9968 0.00541864 0)
(49.9964 0.00631922 0)
(49.9957 0.00644411 0)
(49.9949 0.00779827 0)
(49.9939 0.00831202 0)
(49.993 0.00961899 0)
(49.9921 0.0102983 0)
(49.9912 0.0113466 0)
(49.9901 0.0124211 0)
(49.9889 0.0137386 0)
(49.9874 0.0153353 0)
(49.9858 0.0170902 0)
(49.9843 0.0188948 0)
(49.9827 0.0210671 0)
(49.9811 0.0232123 0)
(49.9793 0.0259532 0)
(49.9774 0.028917 0)
(49.9755 0.0322727 0)
(49.9733 0.0364306 0)
(49.9716 0.0403513 0)
(49.9694 0.0458122 0)
(49.9681 0.0505026 0)
(49.9661 0.0572462 0)
(49.9654 0.0632267 0)
(49.964 0.0710473 0)
(49.964 0.0786544 0)
(49.9637 0.0871538 0)
(49.9649 0.0962674 0)
(49.9999 7.73757e-05 0)
(50 0.000675457 0)
(49.9997 0.0010287 0)
(50 0.00112203 0)
(49.9995 0.0018601 0)
(49.9996 0.00206496 0)
(49.999 0.00289525 0)
(49.9991 0.00298692 0)
(49.9986 0.00349191 0)
(49.9986 0.00400302 0)
(49.9978 0.00454519 0)
(49.9975 0.00546765 0)
(49.9968 0.005709 0)
(49.9966 0.00657715 0)
(49.9958 0.00687014 0)
(49.9952 0.00792604 0)
(49.9941 0.00874506 0)
(49.9934 0.00982885 0)
(49.9923 0.0108439 0)
(49.9916 0.0118045 0)
(49.9904 0.0129613 0)
(49.9894 0.014304 0)
(49.9879 0.0158132 0)
(49.9865 0.0177528 0)
(49.985 0.0195109 0)
(49.9836 0.0218282 0)
(49.9819 0.0240283 0)
(49.9805 0.0267179 0)
(49.9784 0.0298484 0)
(49.977 0.0330198 0)
(49.9748 0.037369 0)
(49.9735 0.041155 0)
(49.9713 0.0466425 0)
(49.9704 0.0513156 0)
(49.9685 0.0577745 0)
(49.9681 0.0638163 0)
(49.967 0.0711296 0)
(49.9672 0.0787635 0)
(49.9671 0.086705 0)
(49.9685 0.0956457 0)
(49.9998 0.00017416 0)
(50.0001 0.000525564 0)
(49.9995 0.00120509 0)
(50 0.00116468 0)
(49.9994 0.00189264 0)
(49.9997 0.00212483 0)
(49.9989 0.00289394 0)
(49.9991 0.00325108 0)
(49.9985 0.00358594 0)
(49.9986 0.00420701 0)
(49.9978 0.00463489 0)
(49.9977 0.00558725 0)
(49.9968 0.00602094 0)
(49.9967 0.0067615 0)
(49.9958 0.00732272 0)
(49.9955 0.00809449 0)
(49.9943 0.0091288 0)
(49.9938 0.0100889 0)
(49.9925 0.0112528 0)
(49.992 0.0123201 0)
(49.9907 0.013417 0)
(49.9899 0.0149231 0)
(49.9884 0.0162613 0)
(49.9873 0.0183749 0)
(49.9856 0.0201156 0)
(49.9845 0.0224983 0)
(49.9827 0.0248421 0)
(49.9816 0.0274029 0)
(49.9795 0.0307399 0)
(49.9785 0.0337088 0)
(49.9762 0.0381923 0)
(49.9753 0.0419002 0)
(49.9732 0.0473094 0)
(49.9726 0.0520698 0)
(49.9709 0.0581604 0)
(49.9708 0.0643253 0)
(49.9698 0.0711077 0)
(49.9704 0.0787571 0)
(49.9704 0.0862118 0)
(49.972 0.094915 0)
(49.9997 0.000256924 0)
(50.0002 0.000432387 0)
(49.9995 0.00126932 0)
(50 0.00130854 0)
(49.9994 0.00189342 0)
(49.9997 0.00223833 0)
(49.9989 0.00285424 0)
(49.9992 0.00345264 0)
(49.9984 0.00373197 0)
(49.9987 0.00435522 0)
(49.9978 0.00481097 0)
(49.9978 0.00564291 0)
(49.9968 0.00632225 0)
(49.9969 0.00693583 0)
(49.9958 0.00770076 0)
(49.9958 0.00836422 0)
(49.9944 0.00942152 0)
(49.9941 0.0104393 0)
(49.9928 0.0115446 0)
(49.9924 0.0128369 0)
(49.9911 0.0138406 0)
(49.9905 0.0155017 0)
(49.9889 0.0167684 0)
(49.988 0.0188936 0)
(49.9863 0.0207542 0)
(49.9854 0.0230607 0)
(49.9835 0.025625 0)
(49.9828 0.0280505 0)
(49.9806 0.0315199 0)
(49.98 0.0344147 0)
(49.9777 0.0388486 0)
(49.9771 0.0426288 0)
(49.9751 0.04782 0)
(49.9747 0.0527293 0)
(49.9732 0.0584718 0)
(49.9734 0.06468 0)
(49.9726 0.0710684 0)
(49.9734 0.0785827 0)
(49.9735 0.0857112 0)
(49.9754 0.0940813 0)
(49.9997 0.000298482 0)
(50.0003 0.000432273 0)
(49.9994 0.00122669 0)
(50 0.00149422 0)
(49.9993 0.00189798 0)
(49.9998 0.00237286 0)
(49.9989 0.00283864 0)
(49.9992 0.00357186 0)
(49.9984 0.00392746 0)
(49.9988 0.00446264 0)
(49.9978 0.00503751 0)
(49.998 0.00569124 0)
(49.9968 0.00658105 0)
(49.9971 0.00713515 0)
(49.9959 0.00798653 0)
(49.996 0.00870485 0)
(49.9946 0.00965041 0)
(49.9945 0.0108402 0)
(49.993 0.0117861 0)
(49.9928 0.0133091 0)
(49.9914 0.0142562 0)
(49.991 0.0160096 0)
(49.9894 0.017329 0)
(49.9888 0.0193327 0)
(49.9869 0.021398 0)
(49.9864 0.0235435 0)
(49.9843 0.0263513 0)
(49.9839 0.0286662 0)
(49.9818 0.0322004 0)
(49.9814 0.0351155 0)
(49.9793 0.0393775 0)
(49.9789 0.0433208 0)
(49.977 0.0481989 0)
(49.9769 0.0532941 0)
(49.9755 0.0587002 0)
(49.976 0.0649064 0)
(49.9753 0.0710058 0)
(49.9764 0.0782621 0)
(49.9765 0.0852078 0)
(49.9787 0.0931385 0)
(49.9996 0.000295549 0)
(50.0004 0.000512501 0)
(49.9995 0.00113951 0)
(50.0001 0.00164399 0)
(49.9993 0.00195315 0)
(49.9999 0.00247929 0)
(49.9989 0.00289562 0)
(49.9994 0.00361061 0)
(49.9983 0.00413704 0)
(49.9989 0.00457368 0)
(49.9978 0.00524766 0)
(49.9982 0.00580043 0)
(49.9968 0.00675569 0)
(49.9972 0.00739003 0)
(49.996 0.00819328 0)
(49.9963 0.00906273 0)
(49.9948 0.00986802 0)
(49.9948 0.0112139 0)
(49.9933 0.012066 0)
(49.9933 0.0136864 0)
(49.9917 0.0146949 0)
(49.9916 0.0164304 0)
(49.9898 0.0179039 0)
(49.9896 0.0197463 0)
(49.9876 0.0219856 0)
(49.9873 0.0240164 0)
(49.9852 0.0269649 0)
(49.9851 0.029277 0)
(49.9829 0.0327798 0)
(49.9828 0.0357763 0)
(49.9808 0.0398394 0)
(49.9807 0.0439129 0)
(49.9789 0.0485227 0)
(49.979 0.0537206 0)
(49.9777 0.0588678 0)
(49.9785 0.0650186 0)
(49.9778 0.0708859 0)
(49.9793 0.0778575 0)
(49.9794 0.0846492 0)
(49.9819 0.0921375 0)
(49.9995 0.000264462 0)
(50.0005 0.000631657 0)
(49.9995 0.00107331 0)
(50.0002 0.00171982 0)
(49.9992 0.00205666 0)
(50 0.00255084 0)
(49.9989 0.003016 0)
(49.9995 0.00360865 0)
(49.9983 0.00432176 0)
(49.999 0.00470948 0)
(49.9978 0.00542224 0)
(49.9984 0.00597566 0)
(49.9969 0.00685695 0)
(49.9974 0.00768229 0)
(49.9961 0.00835411 0)
(49.9965 0.00941005 0)
(49.995 0.0100948 0)
(49.9952 0.011532 0)
(49.9936 0.0124021 0)
(49.9937 0.013972 0)
(49.9921 0.0151577 0)
(49.9922 0.0167674 0)
(49.9903 0.0184671 0)
(49.9903 0.0201533 0)
(49.9883 0.0225062 0)
(49.9883 0.0244973 0)
(49.9861 0.0274532 0)
(49.9862 0.0298862 0)
(49.9841 0.033251 0)
(49.9842 0.0363979 0)
(49.9823 0.040237 0)
(49.9824 0.0444035 0)
(49.9807 0.0488132 0)
(49.9811 0.0539923 0)
(49.9799 0.0590042 0)
(49.9809 0.0649915 0)
(49.9803 0.0707309 0)
(49.9821 0.0773764 0)
(49.9822 0.0840285 0)
(49.985 0.0911159 0)
(49.9995 0.000235998 0)
(50.0005 0.000725179 0)
(49.9994 0.00107258 0)
(50.0003 0.00172044 0)
(49.9992 0.00217013 0)
(50.0001 0.00261414 0)
(49.9989 0.00315122 0)
(49.9997 0.00363639 0)
(49.9983 0.00443915 0)
(49.9992 0.00488038 0)
(49.9978 0.00556026 0)
(49.9986 0.00618797 0)
(49.997 0.00693905 0)
(49.9976 0.00794837 0)
(49.9962 0.00852884 0)
(49.9967 0.00970389 0)
(49.9952 0.0103502 0)
(49.9955 0.0117909 0)
(49.9938 0.0127627 0)
(49.9942 0.014223 0)
(49.9924 0.0155984 0)
(49.9928 0.0170734 0)
(49.9908 0.0189728 0)
(49.9911 0.0205637 0)
(49.989 0.0229683 0)
(49.9893 0.0249648 0)
(49.9871 0.0278587 0)
(49.9874 0.0304488 0)
(49.9853 0.0336495 0)
(49.9857 0.0369584 0)
(49.9838 0.0405729 0)
(49.9842 0.0448112 0)
(49.9825 0.0490463 0)
(49.9832 0.0541514 0)
(49.982 0.0590884 0)
(49.9833 0.064841 0)
(49.9827 0.0705438 0)
(49.9849 0.0768094 0)
(49.9849 0.0833692 0)
(49.988 0.0900608 0)
(49.9994 0.000227559 0)
(50.0006 0.000761335 0)
(49.9994 0.00114029 0)
(50.0004 0.0016868 0)
(49.9991 0.00226429 0)
(50.0002 0.00268087 0)
(49.9988 0.00326717 0)
(49.9998 0.00372196 0)
(49.9983 0.00448782 0)
(49.9993 0.005074 0)
(49.9978 0.00566443 0)
(49.9987 0.00641473 0)
(49.9972 0.00703362 0)
(49.9978 0.00815739 0)
(49.9963 0.00874356 0)
(49.997 0.0099263 0)
(49.9954 0.0106506 0)
(49.9959 0.0119899 0)
(49.9941 0.0131279 0)
(49.9947 0.0144674 0)
(49.9928 0.015988 0)
(49.9934 0.0173891 0)
(49.9913 0.0193816 0)
(49.9918 0.0209917 0)
(49.9897 0.0233629 0)
(49.9902 0.025419 0)
(49.988 0.028207 0)
(49.9885 0.0309314 0)
(49.9865 0.034009 0)
(49.987 0.0374215 0)
(49.9852 0.0408748 0)
(49.9859 0.0451214 0)
(49.9843 0.0492263 0)
(49.9853 0.0542208 0)
(49.9841 0.0590957 0)
(49.9857 0.0646047 0)
(49.9851 0.070284 0)
(49.9875 0.0761879 0)
(49.9875 0.0826581 0)
(49.9909 0.0889789 0)
(49.9994 0.000235991 0)
(50.0006 0.000757741 0)
(49.9993 0.00122793 0)
(50.0005 0.00167827 0)
(49.9991 0.00231846 0)
(50.0002 0.00275831 0)
(49.9988 0.00334997 0)
(49.9999 0.00384918 0)
(49.9983 0.0045108 0)
(49.9994 0.00524886 0)
(49.9979 0.00576367 0)
(49.9989 0.00662376 0)
(49.9973 0.00716049 0)
(49.9981 0.0083144 0)
(49.9964 0.00897718 0)
(49.9973 0.010105 0)
(49.9956 0.0109643 0)
(49.9963 0.0121608 0)
(49.9944 0.0134698 0)
(49.9951 0.0147101 0)
(49.9932 0.0163341 0)
(49.994 0.0177087 0)
(49.9919 0.0197107 0)
(49.9925 0.0214165 0)
(49.9904 0.0236952 0)
(49.9911 0.0258623 0)
(49.989 0.0284995 0)
(49.9897 0.0313438 0)
(49.9876 0.0343248 0)
(49.9884 0.0377849 0)
(49.9867 0.0411544 0)
(49.9876 0.04532 0)
(49.9861 0.0493727 0)
(49.9873 0.0541921 0)
(49.9861 0.059035 0)
(49.988 0.0642986 0)
(49.9873 0.0699289 0)
(49.9901 0.0755447 0)
(49.9901 0.0818653 0)
(49.9936 0.0878996 0)
(49.9993 0.000253757 0)
(50.0007 0.00074129 0)
(49.9992 0.00128752 0)
(50.0006 0.00172116 0)
(49.999 0.00232772 0)
(50.0003 0.0028516 0)
(49.9988 0.00339778 0)
(50 0.00399495 0)
(49.9984 0.00454628 0)
(49.9995 0.00538115 0)
(49.9979 0.00588212 0)
(49.9991 0.00678467 0)
(49.9974 0.00733151 0)
(49.9983 0.00842695 0)
(49.9965 0.00920937 0)
(49.9976 0.0102644 0)
(49.9958 0.0112529 0)
(49.9967 0.0123437 0)
(49.9947 0.0137551 0)
(49.9956 0.0149649 0)
(49.9936 0.0166329 0)
(49.9946 0.0180235 0)
(49.9924 0.0199906 0)
(49.9933 0.0217997 0)
(49.9911 0.0239926 0)
(49.9921 0.0262675 0)
(49.9899 0.028757 0)
(49.9908 0.0316905 0)
(49.9888 0.0345844 0)
(49.9898 0.0380666 0)
(49.9881 0.0413928 0)
(49.9893 0.0454262 0)
(49.9877 0.0494785 0)
(49.9893 0.0540725 0)
(49.9881 0.0589156 0)
(49.9903 0.0639265 0)
(49.9896 0.0694819 0)
(49.9926 0.0748777 0)
(49.9925 0.0809863 0)
(49.9963 0.0868298 0)
(49.9992 0.000267235 0)
(50.0007 0.000737615 0)
(49.9992 0.00130869 0)
(50.0006 0.00180001 0)
(49.999 0.00232443 0)
(50.0004 0.00294762 0)
(49.9988 0.00342819 0)
(50.0001 0.00412974 0)
(49.9984 0.0046094 0)
(49.9997 0.00547676 0)
(49.9979 0.0060145 0)
(49.9992 0.00690025 0)
(49.9974 0.00752863 0)
(49.9986 0.00851622 0)
(49.9967 0.00942635 0)
(49.9979 0.0104133 0)