/*--------------------------------*- C++ -*----------------------------------*\
| =========                 |                                                 |
| \\      /  F ield         | OpenFOAM: The Open Source CFD Toolbox           |
|  \\    /   O peration     | Version:  v2012                                 |
|   \\  /    A nd           | Website:  www.openfoam.com                      |
|    \\/     M anipulation  |                                                 |
\*---------------------------------------------------------------------------*/
FoamFile
{
    version     2.0;
    format      ascii;
    class       volScalarField;
    location    "0.05";
    object      p;
}
// * * * * * * * * * * * * * * * * * * * * * * * * * * * * * * * * * * * * * //

dimensions      [0 2 -2 0 0 0 0];


internalField   nonuniform List<scalar> 
9600
(
28.5412
28.6216
28.6577
28.6657
28.6581
28.651
28.6512
28.6661
28.6891
28.7219
28.7557
28.7932
28.8278
28.8692
28.9101
28.9605
29.0119
29.0751
29.1428
29.2232
29.3087
29.4041
29.5061
29.6208
29.7502
29.8968
30.062
30.2489
30.4598
30.7026
30.9785
31.3026
31.6758
32.1253
32.6545
33.3166
34.1177
35.1542
36.4397
38.0347
28.5728
28.6114
28.639
28.6513
28.6561
28.6542
28.6589
28.6681
28.692
28.7201
28.7565
28.7899
28.8289
28.8661
28.912
28.9575
29.0138
29.0719
29.1442
29.2201
29.3096
29.4011
29.5064
29.6177
29.7501
29.8933
30.0614
30.2446
30.4587
30.6968
30.9769
31.295
31.6744
32.1152
32.651
33.2883
34.0672
34.9661
35.9877
36.9562
28.5863
28.6055
28.6263
28.6406
28.6526
28.6559
28.6634
28.671
28.694
28.7196
28.7558
28.7877
28.8278
28.8639
28.9113
28.9557
29.0132
29.0698
29.143
29.2175
29.308
29.398
29.5043
29.614
29.7473
29.889
30.0577
30.2395
30.4536
30.6903
30.9697
31.2863
31.6615
32.0966
32.6158
33.2191
33.9211
34.6952
35.509
36.2392
28.5959
28.604
28.6199
28.6334
28.6478
28.6543
28.6637
28.6731
28.6949
28.7202
28.7542
28.7865
28.8251
28.8623
28.9086
28.9543
29.0106
29.068
29.1402
29.2145
29.3051
29.3935
29.5011
29.6078
29.7429
29.8804
30.052
30.2293
30.446
30.678
30.9582
31.2683
31.6381
32.059
32.5527
33.113
33.7388
34.4133
35.0787
35.6767
28.6003
28.6036
28.6173
28.6282
28.643
28.6501
28.6623
28.673
28.6954
28.7196
28.7532
28.7846
28.8229
28.8596
28.906
28.9513
29.0078
29.0646
29.1369
29.2105
29.3008
29.3884
29.4955
29.6019
29.7352
29.8731
30.0418
30.2201
30.4321
30.6649
30.9372
31.2452
31.5994
32.0079
32.4647
32.9877
33.5388
34.1324
34.6824
35.1747
28.6
28.6035
28.6158
28.625
28.6395
28.646
28.6602
28.6709
28.695
28.7177
28.7526
28.7817
28.8214
28.8554
28.9034
28.9461
29.0046
29.0594
29.1331
29.2056
29.2951
29.383
29.4876
29.5957
29.7243
29.8653
30.0274
30.2095
30.4126
30.6484
30.9074
31.2147
31.5467
31.9429
32.3603
32.8469
33.3309
33.8536
34.3115
34.7162
28.6014
28.6005
28.6134
28.6221
28.6376
28.6426
28.6575
28.6673
28.693
28.7152
28.7509
28.7791
28.8186
28.8521
28.8991
28.9424
28.9989
29.0555
29.1263
29.2012
29.2866
29.3778
29.4769
29.589
29.7106
29.8559
30.0097
30.1955
30.3889
30.6258
30.8722
31.1737
31.4867
31.8633
32.2482
32.6921
33.1236
33.5774
33.9651
34.2928
28.6053
28.5942
28.6087
28.6185
28.6369
28.6402
28.6547
28.6632
28.6893
28.7124
28.7474
28.777
28.8143
28.8501
28.8932
28.9396
28.9912
29.052
29.1169
29.1966
29.2758
29.3718
29.4642
29.5801
29.6956
29.8428
29.991
30.1759
30.3638
30.5951
30.8338
31.1221
31.4211
31.7706
32.13
32.5275
32.9173
33.3064
33.6407
33.9012
28.6116
28.5869
28.6004
28.6141
28.6353
28.6403
28.6515
28.6606
28.6834
28.7099
28.7418
28.7755
28.8084
28.8483
28.8858
28.9366
28.9822
29.0473
29.1067
29.19
29.2648
29.3628
29.452
29.5674
29.6811
29.8248
29.9721
30.1504
30.3369
30.557
30.7916
31.061
31.349
31.6687
32.0052
32.3587
32.7111
33.044
33.334
33.5393
28.6178
28.581
28.5891
28.6087
28.6318
28.6424
28.6484
28.659
28.6759
28.7067
28.7346
28.7734
28.8016
28.8455
28.8784
28.9318
28.9741
29.04
29.0977
29.1801
29.255
29.3501
29.4405
29.551
29.6663
29.8027
29.9518
30.12
30.3068
30.5132
30.7437
30.9939
31.2696
31.5618
31.8739
32.1897
32.5053
32.7916
33.0412
33.2042
28.6194
28.5795
28.5772
28.6017
28.6256
28.6442
28.6465
28.6581
28.6685
28.7017
28.7272
28.7694
28.7962
28.8407
28.8725
28.9244
28.9672
29.03
29.0897
29.1675
29.2454
29.3346
29.4286
29.5316
29.6501
29.7779
29.9283
30.0868
30.2715
30.4663
30.6887
30.9234
31.1826
31.4522
31.7374
32.0214
32.3013
32.5486
32.7612
32.8913
28.6132
28.583
28.5716
28.5935
28.6162
28.6427
28.6461
28.6579
28.6635
28.6946
28.7199
28.7625
28.792
28.8341
28.8677
28.915
28.9605
29.0181
29.0812
29.1532
29.2347
29.3176
29.4145
29.5108
29.6307
29.7518
29.9004
30.0522
30.2305
30.4172
30.6273
30.8499
31.0895
31.3399
31.5976
31.8536
32.1006
32.3144
32.4932
32.5967
28.6005
28.588
28.5725
28.5862
28.6051
28.6359
28.6455
28.6574
28.6612
28.6862
28.7125
28.753
28.7872
28.8262
28.863
28.9047
28.9528
29.0052
29.071
29.1384
29.2219
29.3004
29.3975
29.4897
29.6073
29.725
29.868
30.0161
30.1845
30.3653
30.5609
30.7725
30.9924
31.2241
31.457
31.6862
31.9039
32.0881
32.2368
32.3178
28.5853
28.5903
28.5782
28.5817
28.5949
28.6244
28.642
28.6557
28.6613
28.6787
28.705
28.7416
28.7802
28.8176
28.8575
28.8951
28.9437
28.9921
29.0584
29.1233
29.2068
29.2832
29.3779
29.4683
29.5804
29.6969
29.8318
29.9777
30.1349
30.3096
30.4911
30.6907
30.8931
31.1054
31.3163
31.52
31.7114
31.8694
31.9911
32.0526
28.5724
28.5877
28.5835
28.5801
28.5872
28.6103
28.6345
28.6517
28.6617
28.6738
28.6975
28.7297
28.7705
28.8082
28.8504
28.8862
28.9336
28.9791
29.0437
29.1075
29.1891
29.2656
29.3559
29.446
29.5509
29.6666
29.7928
29.9357
30.083
30.2498
30.4194
30.6048
30.7922
30.9845
31.1756
31.3558
31.5226
31.6579
31.7551
31.7996
28.5638
28.5805
28.584
28.5802
28.5828
28.5979
28.6234
28.6447
28.6601
28.671
28.6909
28.7185
28.7584
28.7974
28.8414
28.8776
28.9229
28.9661
29.0274
29.0907
29.1692
29.2469
29.3321
29.4223
29.5197
29.6335
29.752
29.8899
30.0293
30.186
30.3458
30.5158
30.6896
30.8627
31.0349
31.1943
31.3378
31.4531
31.5285
31.5573
28.5593
28.5704
28.5792
28.5792
28.5808
28.5893
28.6109
28.6347
28.655
28.6687
28.6856
28.7088
28.7453
28.7848
28.8303
28.8682
28.9118
28.9534
29.0101
29.0728
29.1474
29.2263
29.3069
29.3964
29.4879
29.5973
29.71
29.8404
29.9737
30.1192
30.2698
30.4252
30.585
30.741
30.8942
31.0352
31.1574
31.2542
31.311
31.3244
28.5565
28.5606
28.5702
28.5757
28.5791
28.5844
28.5996
28.6229
28.6465
28.6646
28.6809
28.7005
28.7327
28.7707
28.817
28.8571
28.8999
28.9407
28.9922
29.0539
29.124
29.2033
29.2806
29.368
29.4554
29.5585
29.6665
29.7879
29.9156
30.0501
30.1914
30.3335
30.4786
30.6196
30.7543
30.8785
30.9815
31.0607
31.1019
31.1004
28.5535
28.5523
28.5593
28.5694
28.5756
28.5815
28.5909
28.611
28.6353
28.6574
28.6758
28.6932
28.7213
28.7561
28.8018
28.844
28.8866
28.9277
28.9743
29.034
29.0998
29.1777
29.2531
29.3372
29.4219
29.5177
29.6211
29.7335
29.8546
29.9796
30.1104
30.2412
30.3715
30.4984
30.6159
30.7236
30.8103
30.8725
30.9003
30.885
28.5488
28.5456
28.5489
28.5609
28.5698
28.578
28.5845
28.6001
28.6231
28.6472
28.6692
28.6862
28.7109
28.742
28.7851
28.8291
28.8715
28.9138
28.9566
29.013
29.0751
29.1498
29.2243
29.304
29.3868
29.4756
29.5737
29.6778
29.7908
29.9076
30.0274
30.148
30.2641
30.3772
30.4795
30.5708
30.6433
30.6894
30.7056
30.6781
28.542
28.5399
28.5402
28.5513
28.562
28.5724
28.5793
28.5906
28.6112
28.6349
28.66
28.6785
28.701
28.7289
28.7678
28.8125
28.8546
28.898
28.9388
28.9912
29.0501
29.1201
29.1936
29.2691
29.3495
29.4325
29.5242
29.6211
29.725
29.834
29.9432
30.0536
30.1572
30.2564
30.3452
30.4206
30.48
30.5117
30.5166
30.4791
28.5333
28.5343
28.5331
28.5414
28.5528
28.5647
28.5738
28.5821
28.6001
28.6219
28.6485
28.6694
28.6907
28.7167
28.7507
28.7944
28.8363
28.8799
28.9205
28.9687
29.0249
29.0894
29.1609
29.2328
29.3098
29.3884
29.473
29.5635
29.6578
29.7587
29.8581
29.958
30.051
30.1363
30.2127
30.2733
30.3201
30.3393
30.3329
30.2875
28.5237
28.5277
28.527
28.5318
28.5431
28.5552
28.567
28.5742
28.5894
28.6093
28.6353
28.6587
28.6793
28.7043
28.7345
28.7754
28.8169
28.8597
28.901
28.9455
28.9989
29.0583
29.1264
29.1952
29.2678
29.3429
29.4205
29.5046
29.5898
29.6818
29.7724
29.8616
29.945
30.0173
30.082
30.1292
30.1636
30.1718
30.1546
30.1023
28.5138
28.5198
28.5212
28.5228
28.5329
28.5446
28.5583
28.5663
28.5789
28.5972
28.6211
28.6463
28.667
28.6912
28.7189
28.756
28.7967
28.8378
28.8796
28.9216
28.9719
29.0271
29.0902
29.1562
29.224
29.2957
29.367
29.4442
29.5216
29.6038
29.6861
29.7648
29.8391
29.8999
29.9529
29.9883
30.0103
30.0089
29.9815
29.9228
28.5044
28.5106
28.5145
28.5144
28.5226
28.5335
28.5481
28.5578
28.5683
28.5853
28.6068
28.6324
28.6538
28.6768
28.7033
28.7365
28.7759
28.8149
28.8562
28.8969
28.9437
28.9957
29.0531
29.1159
29.1789
29.2466
29.3126
29.3827
29.4529
29.5253
29.5994
29.668
29.7332
29.784
29.8256
29.8505
29.8605
29.8502
29.8134
29.7487
28.4955
28.5004
28.5063
28.5065
28.5124
28.5224
28.5365
28.5484
28.5578
28.5731
28.5927
28.6174
28.6396
28.6613
28.687
28.7171
28.7544
28.7915
28.831
28.8708
28.9144
28.9635
29.0156
29.0741
29.1327
29.1956
29.2572
29.3202
29.3837
29.4467
29.5121
29.5715
29.6275
29.6693
29.7004
29.7155
29.7145
29.6955
29.6503
29.5796
28.4869
28.4898
28.4964
28.4984
28.5023
28.5113
28.5241
28.5377
28.5471
28.5605
28.5786
28.6015
28.6246
28.6451
28.6697
28.6975
28.7322
28.7678
28.8046
28.8435
28.884
28.9303
28.9778
29.0312
29.0855
29.1432
29.2006
29.2569
29.3139
29.3682
29.4248
29.4755
29.5221
29.5559
29.5771
29.5833
29.5722
29.5446
29.4919
29.4153
28.478
28.4794
28.4853
28.4894
28.4925
28.5002
28.5115
28.5256
28.536
28.5477
28.5643
28.5852
28.6085
28.6283
28.6514
28.6775
28.7094
28.7436
28.7775
28.8147
28.8524
28.8958
28.9396
28.9877
29.0375
29.0896
29.1428
29.193
29.2435
29.2899
29.3377
29.38
29.4175
29.4436
29.4557
29.4538
29.4334
29.3976
29.338
29.2556
28.4684
28.4692
28.4737
28.4793
28.4826
28.489
28.499
28.5124
28.5241
28.5346
28.5498
28.5687
28.5913
28.6111
28.6323
28.6569
28.6859
28.7187
28.7501
28.7846
28.8199
28.86
28.9009
28.9437
28.9888
29.0353
29.0838
29.1285
29.1725
29.2118
29.251
29.2853
29.3139
29.3324
29.3362
29.3267
29.298
29.2545
29.1883
29.1004
28.4581
28.459
28.4621
28.468
28.4722
28.4777
28.4866
28.4986
28.5111
28.5213
28.5349
28.5521
28.5732
28.5932
28.6126
28.6356
28.6619
28.6929
28.7222
28.7538
28.7865
28.8231
28.8612
28.8992
28.9396
28.9804
29.0237
29.0635
29.1012
29.134
29.1648
29.1914
29.2115
29.2225
29.2188
29.2018
29.166
29.1149
29.0429
28.9495
28.4471
28.4484
28.4509
28.456
28.4611
28.466
28.4741
28.4847
28.497
28.5075
28.5197
28.5353
28.5545
28.5743
28.5925
28.6136
28.6375
28.6661
28.6938
28.7223
28.7523
28.7852
28.8205
28.8544
28.8899
28.9252
28.963
28.9979
29.0297
29.0562
29.0792
29.0984
29.1104
29.1141
29.1032
29.0793
29.037
28.9789
28.9015
28.8029
28.4358
28.4373
28.4398
28.4438
28.4491
28.454
28.4613
28.4707
28.4823
28.493
28.504
28.5183
28.5355
28.5546
28.5718
28.5911
28.6126
28.6386
28.6647
28.6904
28.7174
28.7465
28.7786
28.8091
28.8399
28.8699
28.9018
28.9317
28.958
28.9787
28.9944
29.0063
29.0107
29.0073
28.9895
28.959
28.9109
28.8464
28.764
28.6604
28.4243
28.4256
28.4283
28.4316
28.4366
28.4415
28.4481
28.4567
28.4671
28.4777
28.488
28.5009
28.5162
28.534
28.5505
28.5679
28.5873
28.6104
28.6347
28.6579
28.682
28.7074
28.7359
28.763
28.7895
28.8145
28.8404
28.8653
28.8862
28.9014
28.9103
28.9151
28.9124
28.902
28.878
28.8409
28.7875
28.7172
28.6301
28.522
28.4126
28.4133
28.4162
28.4194
28.4237
28.4285
28.4343
28.4425
28.4516
28.4618
28.4714
28.483
28.4968
28.5129
28.5285
28.5442
28.5616
28.5819
28.6039
28.6249
28.6461
28.6678
28.6925
28.7163
28.7387
28.759
28.7791
28.7988
28.8143
28.8244
28.827
28.825
28.8156
28.7985
28.7686
28.7252
28.6668
28.5912
28.4997
28.3876
28.4008
28.4009
28.4035
28.4069
28.4105
28.4151
28.4202
28.4278
28.436
28.4454
28.4543
28.4647
28.4771
28.4913
28.5059
28.52
28.5353
28.5529
28.5725
28.5913
28.6097
28.628
28.6486
28.6689
28.6875
28.7035
28.7181
28.7322
28.7425
28.7476
28.7446
28.736
28.7203
28.6966
28.6612
28.6119
28.5485
28.4682
28.3725
28.2571
28.3886
28.3883
28.3902
28.394
28.3973
28.4014
28.4058
28.4126
28.4203
28.4285
28.4368
28.4458
28.4569
28.4695
28.4826
28.4952
28.5086
28.5237
28.5406
28.557
28.5728
28.5878
28.6045
28.6211
28.6359
28.6479
28.6573
28.6659
28.6711
28.6711
28.663
28.6483
28.6264
28.5966
28.5558
28.5011
28.4329
28.3481
28.2485
28.1301
28.3759
28.3757
28.3767
28.3805
28.3837
28.3874
28.3911
28.3968
28.4041
28.4114
28.4189
28.4266
28.4363
28.4473
28.4589
28.4701
28.4813
28.4941
28.5084
28.5223
28.5354
28.5474
28.5602
28.573
28.584
28.5922
28.5968
28.6001
28.6
28.5951
28.5822
28.5617
28.5341
28.4983
28.4524
28.3927
28.3198
28.231
28.1275
28.0065
28.3627
28.3629
28.3632
28.3665
28.3698
28.3732
28.3764
28.3808
28.3874
28.3939
28.4007
28.4071
28.4153
28.4249
28.4348
28.4444
28.4537
28.4641
28.4758
28.4872
28.4977
28.5067
28.5158
28.5247
28.5319
28.5364
28.5366
28.5347
28.5295
28.5196
28.5022
28.4765
28.4433
28.4018
28.351
28.2867
28.2093
28.1167
28.0094
27.8862
28.349
28.3498
28.3498
28.3521
28.3555
28.3585
28.3614
28.3646
28.3703
28.3762
28.382
28.3874
28.3938
28.402
28.4103
28.4184
28.4257
28.4338
28.443
28.4518
28.4596
28.4657
28.4712
28.4765
28.4798
28.4805
28.4766
28.4699
28.4596
28.4448
28.423
28.3924
28.3542
28.3072
28.2515
28.1831
28.1013
28.0052
27.8943
27.7687
28.335
28.3363
28.3364
28.3376
28.3407
28.3434
28.3462
28.3484
28.3528
28.358
28.363
28.3675
28.3722
28.3787
28.3855
28.392
28.3975
28.4031
28.4099
28.4161
28.4213
28.4245
28.4266
28.4282
28.4277
28.4247
28.4169
28.4057
28.3906
28.3708
28.3447
28.3096
28.2666
28.2146
28.154
28.0817
27.9958
27.8964
27.7822
27.6542
28.3209
28.3224
28.3228
28.3231
28.3256
28.328
28.3306
28.3321
28.3351
28.3394
28.3436
28.3473
28.3504
28.3552
28.3604
28.3653
28.3691
28.3723
28.3765
28.3802
28.3828
28.3832
28.382
28.3801
28.3758
28.3691
28.3576
28.342
28.3225
28.2978
28.2675
28.228
28.1805
28.124
28.0585
27.9825
27.8929
27.7903
27.6731
27.5424
28.3067
28.308
28.3089
28.3086
28.3103
28.3122
28.3145
28.3158
28.3173
28.3206
28.3238
28.3268
28.3285
28.3314
28.335
28.3383
28.3405
28.3413
28.343
28.3441
28.3441
28.342
28.3374
28.3321
28.3241
28.3137
28.2987
28.2789
28.2552
28.2258
28.1912
28.1478
28.0959
28.0353
27.9651
27.8854
27.7925
27.6867
27.5669
27.4335
28.2925
28.2933
28.2945
28.2941
28.2949
28.2962
28.298
28.2992
28.2995
28.3016
28.3037
28.3059
28.3066
28.3074
28.3094
28.3109
28.3116
28.3104
28.3094
28.3081
28.3053
28.3007
28.293
28.2842
28.2729
28.2586
28.2402
28.2164
28.1887
28.155
28.116
28.069
28.0128
27.9484
27.8739
27.7905
27.6945
27.5857
27.4636
27.3276
28.2782
28.2785
28.2796
28.2794
28.2794
28.2801
28.2812
28.2822
28.2817
28.2824
28.2834
28.2845
28.2844
28.2835
28.2837
28.2833
28.2824
28.2794
28.2757
28.272
28.2665
28.2594
28.2488
28.2366
28.222
28.204
28.1823
28.1548
28.123
28.0854
28.042
27.9914
27.9314
27.8632
27.785
27.6976
27.599
27.4872
27.3629
27.2247
28.2638
28.2636
28.2644
28.2645
28.2639
28.264
28.2642
28.2648
28.2638
28.2632
28.263
28.2629
28.262
28.2595
28.2578
28.2557
28.253
28.2484
28.2421
28.2359
28.2278
28.2181
28.2049
28.1893
28.1715
28.1499
28.1249
28.094
28.0582
28.017
27.9693
27.9153
27.8516
27.7798
27.6982
27.607
27.5058
27.3913
27.2648
27.1248
28.2492
28.2487
28.249
28.2493
28.2483
28.2478
28.2471
28.2471
28.2458
28.244
28.2426
28.2411
28.2394
28.2356
28.232
28.2281
28.2235
28.2173
28.2087
28.1999
28.1893
28.1769
28.1613
28.1424
28.1214
28.0965
28.0681
28.034
27.9945
27.9497
27.8982
27.8404
27.7736
27.6981
27.6135
27.5188
27.4147
27.298
27.1692
27.0276
28.2344
28.2338
28.2335
28.2338
28.2327
28.2315
28.23
28.2292
28.2276
28.2247
28.2222
28.2193
28.2165
28.2116
28.2061
28.2005
28.1939
28.186
28.1755
28.164
28.151
28.1359
28.1179
28.0961
28.0719
28.0438
28.0119
27.9749
27.9318
27.8835
27.8284
27.767
27.6973
27.6184
27.5307
27.4329
27.3259
27.2072
27.0762
26.9332
28.2194
28.2189
28.2181
28.218
28.2169
28.2151
28.213
28.2112
28.2091
28.2054
28.2017
28.1975
28.1933
28.1876
28.1804
28.173
28.1644
28.1547
28.1424
28.1284
28.1131
28.0952
28.0748
28.0504
28.0229
27.9919
27.9566
27.9166
27.8703
27.8186
27.7602
27.6952
27.6225
27.5405
27.45
27.3493
27.2394
27.1187
26.9859
26.8413
28.2043
28.204
28.2027
28.2021
28.2009
28.1987
28.1961
28.1931
28.1904
28.1861
28.1812
28.1759
28.1702
28.1635
28.1547
28.1455
28.1351
28.1235
28.1095
28.0932
28.0754
28.055
28.032
28.0051
27.9746
27.9407
27.9022
27.8592
27.8099
27.7549
27.6934
27.625
27.5494
27.4646
27.3712
27.268
27.1553
27.0326
26.898
26.752
28.189
28.1889
28.1875
28.1862
28.1849
28.1822
28.1791
28.1752
28.1716
28.1668
28.1608
28.1543
28.1471
28.1393
28.1293
28.1182
28.1061
28.0924
28.0768
28.0583
28.038
28.0153
27.9897
27.9604
27.9271
27.8903
27.8489
27.8027
27.7507
27.6925
27.6281
27.5566
27.4779
27.3906
27.2944
27.1889
27.0736
26.9488
26.8128
26.6653
28.1737
28.1737
28.1724
28.1703
28.1687
28.1657
28.1621
28.1574
28.1527
28.1474
28.1404
28.1328
28.1242
28.115
28.1039
28.0911
28.0772
28.0616
28.0442
28.0238
28.0011
27.9761
27.9479
27.9163
27.8804
27.8407
27.7965
27.7474
27.6926
27.6316
27.5642
27.4898
27.4082
27.3184
27.2198
27.1119
26.9944
26.8675
26.7299
26.5812
28.1585
28.1584
28.1573
28.1547
28.1524
28.1492
28.1451
28.1398
28.134
28.128
28.1202
28.1114
28.1015
28.0908
28.0786
28.0643
28.0486
28.0312
28.0118
27.9897
27.9647
27.9374
27.9069
27.8728
27.8345
27.792
27.7452
27.6932
27.6358
27.572
27.5019
27.4248
27.3404
27.2481
27.1471
27.0371
26.9175
26.7885
26.6495
26.4996
28.1434
28.1431
28.142
28.1392
28.1362
28.1327
28.128
28.1223
28.1155
28.1085
28.1
28.0901
28.0791
28.0669
28.0535
28.0377
28.0203
28.0011
27.9798
27.9559
27.9289
27.8992
27.8665
27.83
27.7894
27.7443
27.6949
27.6404
27.5802
27.5139
27.4411
27.3615
27.2744
27.1797
27.0766
26.9645
26.843
26.7121
26.5715
26.4205
28.1285
28.1278
28.1267
28.1239
28.1202
28.1162
28.111
28.1049
28.0972
28.0891
28.0799
28.069
28.0569
28.0432
28.0285
28.0115
27.9924
27.9715
27.9483
27.9227
27.8937
27.8617
27.8269
27.7881
27.7452
27.6977
27.6457
27.5887
27.5259
27.4572
27.3819
27.2999
27.2104
27.1133
27.008
26.894
26.7707
26.6381
26.496
26.3439
28.1138
28.1127
28.1113
28.1086
28.1044
28.0999
28.0942
28.0875
28.0792
28.07
28.06
28.0481
28.0349
28.02
28.0037
27.9856
27.9649
27.9423
27.9174
27.8899
27.8591
27.825
27.7879
27.7471
27.7019
27.6522
27.5977
27.5383
27.4732
27.4019
27.3243
27.24
27.1483
27.0489
26.9415
26.8258
26.7008
26.5666
26.423
26.2698
28.0991
28.0979
28.0961
28.0934
28.0889
28.0837
28.0775
28.0702
28.0614
28.0512
28.0402
28.0275
28.0132
27.9971
27.9793
27.96
27.9379
27.9136
27.8869
27.8576
27.8252
27.7891
27.7499
27.707
27.6597
27.6078
27.5509
27.4892
27.4219
27.3483
27.2684
27.1818
27.0881
26.9866
26.8772
26.7596
26.6332
26.4975
26.3525
26.1982
28.0844
28.0833
28.0811
28.0782
28.0736
28.0678
28.061
28.053
28.0438
28.0327
28.0207
28.0071
27.9918
27.9746
27.9555
27.9347
27.9114
27.8855
27.8572
27.8261
27.792
27.7541
27.7127
27.6678
27.6185
27.5645
27.5054
27.4415
27.372
27.2963
27.2142
27.1255
27.0298
26.9264
26.815
26.6957
26.5678
26.4308
26.2846
26.1292
28.07
28.0689
28.0664
28.0631
28.0584
28.0522
28.0448
28.0362
28.0263
28.0147
28.0015
27.9871
27.9707
27.9525
27.9321
27.9099
27.8854
27.858
27.8281
27.7952
27.7594
27.72
27.6765
27.6296
27.5784
27.5224
27.4613
27.3951
27.3236
27.2459
27.1617
27.071
26.9733
26.8682
26.7551
26.6341
26.5048
26.3666
26.2192
26.0627
28.0557
28.0546
28.052
28.0483
28.0434
28.0368
28.0289
28.0196
28.0091
27.9969
27.9828
27.9674
27.9501
27.9309
27.9093
27.8857
27.8599
27.8312
27.7997
27.7652
27.7277
27.6867
27.6414
27.5925
27.5394
27.4816
27.4186
27.3503
27.2768
27.1972
27.1111
27.0184
26.9189
26.8121
26.6974
26.5747
26.444
26.3047
26.1563
25.9989
28.0417
28.0406
28.038
28.0338
28.0286
28.0217
28.0134
28.0035
27.9922
27.9794
27.9646
27.9482
27.9299
27.9097
27.8871
27.8621
27.835
27.805
27.7721
27.7361
27.6969
27.6542
27.6074
27.5566
27.5016
27.442
27.3772
27.307
27.2315
27.1502
27.0623
26.9678
26.8664
26.758
26.6419
26.5177
26.3856
26.2452
26.0959
25.9376
28.0281
28.0269
28.0242
28.0198
28.0141
28.0069
27.9982
27.9877
27.9758
27.9623
27.9468
27.9295
27.9102
27.889
27.8654
27.8393
27.8108
27.7796
27.7453
27.7078
27.667
27.6228
27.5745
27.5219
27.4651
27.4038
27.3373
27.2653
27.1879
27.1048
27.0153
26.9191
26.8161
26.7061
26.5886
26.4631
26.3296
26.1881
26.038
25.879
28.0148
28.0135
28.0106
28.0061
28
27.9925
27.9833
27.9724
27.9598
27.9456
27.9295
27.9113
27.8911
27.8689
27.8443
27.8171
27.7873
27.7549
27.7194
27.6805
27.6382
27.5924
27.5426
27.4885
27.43
27.3669
27.2989
27.2253
27.1461
27.0613
26.9702
26.8724
26.7678
26.6563
26.5375
26.4108
26.2761
26.1335
25.9826
25.8229
28.0019
28.0004
27.9975
27.9928
27.9864
27.9785
27.9689
27.9575
27.9443
27.9294
27.9126
27.8937
27.8726
27.8494
27.8239
27.7957
27.7647
27.731
27.6943
27.6541
27.6104
27.5631
27.5119
27.4563
27.3963
27.3315
27.2619
27.1868
27.106
27.0195
26.9269
26.8278
26.7217
26.6087
26.4886
26.3608
26.2251
26.0814
25.9296
25.7694
27.9894
27.9879
27.9847
27.9799
27.9732
27.9649
27.9549
27.9431
27.9294
27.9138
27.8963
27.8767
27.8548
27.8307
27.8042
27.775
27.743
27.7081
27.6701
27.6288
27.5838
27.5351
27.4825
27.4255
27.364
27.2977
27.2266
27.15
27.0677
26.9797
26.8857
26.7851
26.6778
26.5634
26.4421
26.3132
26.1765
26.0319
25.8793
25.7184
27.9773
27.9757
27.9724
27.9674
27.9605
27.9519
27.9415
27.9292
27.915
27.8988
27.8806
27.8604
27.8377
27.8127
27.7853
27.7552
27.7222
27.6861
27.647
27.6045
27.5583
27.5083
27.4543
27.396
27.3331
27.2655
27.1928
27.115
27.0313
26.9418
26.8464
26.7446
26.636
26.5204
26.3979
26.268
26.1304
25.9849
25.8315
25.6701
27.9657
27.9641
27.9606
27.9554
27.9484
27.9394
27.9286
27.9159
27.9012
27.8845
27.8656
27.8447
27.8213
27.7955
27.7672
27.7362
27.7022
27.6652
27.6249
27.5813
27.534
27.4827
27.4275
27.368
27.3038
27.2348
27.1608
27.0816
26.9967
26.906
26.8092
26.7061
26.5964
26.4798
26.3561
26.2253
26.0868
25.9406
25.7864
25.6244
27.9546
27.953
27.9494
27.944
27.9367
27.9274
27.9163
27.9032
27.888
27.8708
27.8513
27.8297
27.8057
27.7791
27.75
27.7181
27.6833
27.6453
27.604
27.5593
27.5109
27.4585
27.4022
27.3414
27.2761
27.2059
27.1306
27.0502
26.9641
26.8721
26.7741
26.6699
26.5591
26.4415
26.3168
26.185
26.0457
25.8988
25.744
25.5814
27.9441
27.9424
27.9387
27.9331
27.9256
27.9161
27.9046
27.8911
27.8755
27.8578
27.8378
27.8156
27.7909
27.7637
27.7338
27.7011
27.6653
27.6265
27.5843
27.5386
27.4892
27.4357
27.3782
27.3164
27.2499
27.1786
27.1022
27.0206
26.9333
26.8403
26.7412
26.6359
26.5241
26.4055
26.2799
26.1472
26.0072
25.8597
25.7044
25.5412
27.9342
27.9324
27.9287
27.9229
27.9152
27.9054
27.8936
27.8797
27.8637
27.8456
27.8251
27.8022
27.777
27.7491
27.7185
27.685
27.6485
27.6088
27.5657
27.5191
27.4688
27.4144
27.3559
27.2929
27.2254
27.1531
27.0756
26.9929
26.9046
26.8106
26.7105
26.6042
26.4914
26.372
26.2456
26.1121
25.9714
25.8232
25.6674
25.5037
27.9249
27.9231
27.9192
27.9133
27.9054
27.8954
27.8833
27.8691
27.8527
27.8341
27.8132
27.7898
27.764
27.7355
27.7042
27.6701
27.6328
27.5924
27.5484
27.501
27.4498
27.3945
27.335
27.2712
27.2027
27.1294
27.0509
26.9672
26.878
26.783
26.682
26.5748
26.4611
26.3409
26.2137
26.0796
25.9382
25.7894
25.6332
25.4691
27.9163
27.9144
27.9105
27.9045
27.8963
27.8861
27.8738
27.8593
27.8425
27.8235
27.8021
27.7783
27.7519
27.7229
27.691
27.6562
27.6183
27.5771
27.5325
27.4842
27.4322
27.3761
27.3158
27.2511
27.1817
27.1075
27.0282
26.9436
26.8535
26.7576
26.6558
26.5478
26.4333
26.3124
26.1845
26.0497
25.9077
25.7584
25.6017
25.4374
27.9084
27.9065
27.9025
27.8963
27.888
27.8776
27.865
27.8502
27.8332
27.8138
27.792
27.7677
27.7409
27.7114
27.6789
27.6435
27.605
27.5632
27.5179
27.4689
27.4162
27.3593
27.2982
27.2328
27.1626
27.0876
27.0075
26.9221
26.8312
26.7345
26.6319
26.5232
26.4081
26.2864
26.1579
26.0225
25.8801
25.7303
25.5732
25.4085
27.9012
27.8993
27.8952
27.8889
27.8805
27.8699
27.8571
27.842
27.8247
27.805
27.7829
27.7582
27.7309
27.7009
27.668
27.6321
27.593
27.5506
27.5047
27.4551
27.4017
27.3442
27.2824
27.2163
27.1454
27.0697
26.9889
26.9027
26.8111
26.7138
26.6105
26.5011
26.3853
26.263
26.1341
25.9981
25.8552
25.705
25.5475
25.3826
27.8949
27.8929
27.8887
27.8824
27.8738
27.863
27.8501
27.8347
27.8171
27.7972
27.7747
27.7497
27.722
27.6917
27.6583
27.6219
27.5824
27.5394
27.493
27.4429
27.3889
27.3308
27.2684
27.2016
27.1301
27.0538
26.9723
26.8855
26.7933
26.6954
26.5915
26.4815
26.3652
26.2424
26.1129
25.9765
25.8332
25.6827
25.5248
25.3596
27.8893
27.8873
27.883
27.8766
27.8679
27.857
27.8439
27.8284
27.8106
27.7903
27.7676
27.7423
27.7143
27.6836
27.6498
27.613
27.5731
27.5297
27.4828
27.4322
27.3777
27.3191
27.2562
27.1889
27.1169
27.0399
26.958
26.8707
26.7779
26.6794
26.575
26.4646
26.3478
26.2245
26.0946
25.9578
25.8142
25.6633
25.5052
25.3398
27.8846
27.8825
27.8783
27.8718
27.863
27.852
27.8387
27.823
27.805
27.7845
27.7616
27.736
27.7078
27.6767
27.6427
27.6056
27.5652
27.5215
27.4742
27.4232
27.3682
27.3093
27.2459
27.1781
27.1056
27.0283
26.9458
26.8581
26.7649
26.666
26.5611
26.4502
26.3331
26.2094
26.0792
25.9421
25.7981
25.647
25.4886
25.323
27.8807
27.8787
27.8744
27.8678
27.859
27.8478
27.8344
27.8186
27.8005
27.7799
27.7567
27.7309
27.7024
27.6711
27.6369
27.5995
27.5588
27.5148
27.4672
27.4159
27.3606
27.3012
27.2376
27.1694
27.0966
27.0188
26.936
26.8479
26.7543
26.655
26.5499
26.4386
26.3211
26.1972
26.0667
25.9293
25.7851
25.6338
25.4752
25.3094
27.8778
27.8757
27.8714
27.8648
27.8559
27.8447
27.8312
27.8153
27.797
27.7763
27.753
27.7271
27.6984
27.6669
27.6324
27.5948
27.554
27.5097
27.4619
27.4103
27.3548
27.2951
27.2312
27.1628
27.0896
27.0116
26.9285
26.8402
26.7463
26.6468
26.5413
26.4298
26.3121
26.1879
26.0572
25.9196
25.7752
25.6237
25.4651
25.2991
27.8758
27.8738
27.8694
27.8627
27.8538
27.8426
27.829
27.8131
27.7947
27.7739
27.7505
27.7244
27.6957
27.664
27.6294
27.5917
27.5507
27.5063
27.4583
27.4065
27.3508
27.291
27.2269
27.1583
27.085
27.0068
26.9235
26.8349
26.7409
26.6411
26.5356
26.4239
26.306
26.1817
26.0507
25.9131
25.7685
25.617
25.4582
25.2922
27.8748
27.8728
27.8684
27.8617
27.8528
27.8415
27.8279
27.8119
27.7935
27.7726
27.7492
27.7231
27.6943
27.6626
27.6279
27.5901
27.549
27.5045
27.4564
27.4046
27.3488
27.2889
27.2247
27.156
27.0826
27.0043
26.9209
26.8323
26.7381
26.6383
26.5326
26.4209
26.3029
26.1785
26.0475
25.9098
25.7651
25.6135
25.4548
25.2887
39.6214
39.1258
37.3014
35.3234
33.6354
32.2982
31.2414
30.3964
29.6808
29.0672
28.5204
28.0298
27.5704
27.1357
26.7035
26.2796
25.8437
25.4156
24.9687
24.5375
24.0771
23.6484
23.1774
22.7491
22.2724
21.8332
21.3553
20.8966
20.424
19.9424
19.4717
18.961
18.4738
17.9393
17.4259
16.8585
16.3426
15.6989
15.2039
14.478
13.9697
13.2258
12.6181
11.9197
11.1988
10.5057
9.71061
9.0375
8.08405
7.54585
6.43151
5.87586
4.8716
4.13597
3.34812
2.41203
2.04893
0.775095
0.680224
-0.328523
-0.721383
-0.899507
-1.91721
-1.30903
-2.20683
-2.20512
-1.67817
-2.6827
-1.73916
-1.66299
-2.25366
-1.1801
-1.49492
-1.76209
-0.780703
-0.805775
-0.775116
-0.0394153
0.201406
0.00339403
37.641
37.564
36.6764
35.2161
33.6801
32.3089
31.1924
30.2962
29.5756
28.9732
28.4418
27.9707
27.5094
27.092
26.6433
26.2421
25.7814
25.3818
24.9049
24.5064
24.0136
23.617
23.1175
22.7127
22.223
21.7881
21.3245
20.8422
20.4091
19.8782
19.455
18.8958
18.4531
17.8779
17.415
16.7925
16.3406
15.6412
15.1894
14.4576
13.9177
13.2587
12.5459
11.9704
11.1316
10.5651
9.64135
9.10488
8.04689
7.55341
6.5185
5.80198
5.05652
4.02494
3.54734
2.32142
2.12992
0.944065
0.557123
0.0391073
-0.979059
-0.688803
-1.78534
-1.48496
-1.72098
-2.5723
-1.60076
-2.3278
-2.18819
-1.28571
-2.11832
-1.54218
-1.09065
-1.7791
-1.01429
-0.466443
-0.76733
-0.224334
0.312165
0.0501288
36.7638
36.8302
36.2951
35.1993
33.8181
32.4511
31.2608
30.3
29.5282
28.9177
28.3841
27.924
27.466
27.0516
26.604
26.1979
25.7416
25.3306
24.8658
24.4485
23.9793
23.5536
23.0892
22.6448
22.1979
21.7182
21.2953
20.7772
20.366
19.8238
19.3966
18.8522
18.3885
17.8383
17.3503
16.7623
16.2588
15.644
15.0797
14.4868
13.8118
13.2681
12.4947
11.9366
11.1385
10.5231
9.69005
9.02901
8.19806
7.43212
6.7004
5.76838
5.14033
4.15273
3.58157
2.65576
2.02412
1.36844
0.558216
0.222465
-0.579124
-0.771289
-1.15955
-1.6038
-1.51738
-1.99901
-1.91348
-1.79914
-2.05089
-1.52693
-1.53736
-1.68125
-1.23161
-1.26655
-1.19964
-0.613454
-0.438233
-0.314235
0.0753062
0.0552728
36.0682
36.1365
35.7211
34.877
33.6826
32.4374
31.2448
30.2691
29.4463
28.8219
28.2765
27.8228
27.3789
26.9666
26.5371
26.1208
25.6839
25.2526
24.8127
24.366
23.9318
23.467
23.0453
22.5579
22.1502
21.6406
21.2354
20.7167
20.2895
19.7787
19.3095
18.8111
18.3014
17.7951
17.2634
16.7265
16.1649
15.6226
14.9911
14.4624
13.7607
13.2155
12.4871
11.862
11.1617
10.4544
9.73617
8.97968
8.27914
7.41948
6.76824
5.85398
5.15694
4.35737
3.61237
2.89193
2.08872
1.59029
0.782776
0.30868
-0.207462
-0.680528
-0.878824
-1.38052
-1.48082
-1.6154
-1.88253
-1.66589
-1.70477
-1.61978
-1.35651
-1.47321
-1.33574
-1.06828
-1.04013
-0.747374
-0.332174
-0.249794
-0.0880978
0.0314971
35.4625
35.5099
35.1686
34.4979
33.4903
32.377
31.2437
30.2664
29.4279
28.7627
28.2104
27.7345
27.3095
26.8878
26.4824
26.0552
25.6366
25.1914
24.7657
24.3041
23.8834
23.4056
22.9923
22.5016
22.0882
21.595
21.1634
20.6811
20.213
19.7445
19.2375
18.7684
18.2376
17.7455
17.2
16.6812
16.1037
15.5762
14.9516
14.4057
13.7545
13.1484
12.499
11.8126
11.1655
10.4316
9.75222
8.98835
8.30356
7.49048
6.77939
5.99001
5.2059
4.50124
3.714
3.04704
2.28776
1.71016
1.05984
0.469579
0.0486008
-0.443709
-0.732021
-1.06743
-1.33012
-1.3794
-1.59378
-1.58743
-1.4743
-1.48952
-1.31104
-1.26929
-1.26022
-1.02789
-0.865138
-0.727474
-0.37404
-0.196529
-0.134932
0.0015404
34.9308
34.953
34.6663
34.1068
33.263
32.2681
31.2264
30.2561
29.4286
28.7181
28.1572
27.6531
27.2325
26.8072
26.412
25.9885
25.5755
25.1324
24.7081
24.2477
23.8235
23.3528
22.9256
22.4543
22.0142
21.5524
21.087
20.6364
20.1426
19.6916
19.1787
18.7078
18.1862
17.6844
17.1481
16.6248
16.0574
15.5153
14.9235
14.3404
13.7376
13.0964
12.4806
11.7909
11.1438
10.4344
9.7489
9.01548
8.30662
7.56147
6.80486
6.08398
5.29545
4.59868
3.85164
3.17085
2.48184
1.8457
1.27511
0.680725
0.237027
-0.201233
-0.550288
-0.822533
-1.10781
-1.22429
-1.35019
-1.44319
-1.33698
-1.30469
-1.23594
-1.14613
-1.11868
-0.984301