/*--------------------------------*- C++ -*----------------------------------*\
| =========                 |                                                 |
| \\      /  F ield         | OpenFOAM: The Open Source CFD Toolbox           |
|  \\    /   O peration     | Version:  v2012                                 |
|   \\  /    A nd           | Website:  www.openfoam.com                      |
|    \\/     M anipulation  |                                                 |
\*---------------------------------------------------------------------------*/
FoamFile
{
    version     2.0;
    format      ascii;
    class       surfaceScalarField;
    location    "0.05";
    object      phi;
}
// * * * * * * * * * * * * * * * * * * * * * * * * * * * * * * * * * * * * * //

dimensions      [0 3 -1 0 0 0 0];
oriented        oriented;


internalField   nonuniform List<scalar> 
19000
(
0.000433014
-1.45958e-08
0.000433058
-4.42024e-08
0.000433039
1.90581e-08
0.000433053
-1.43867e-08
0.000433004
4.92037e-08
0.000433023
-1.90176e-08
0.000432978
4.54892e-08
0.000433016
-3.86473e-08
0.000432968
4.82453e-08
0.000433014
-4.60781e-08
0.000432957
5.68723e-08
0.000433008
-5.09302e-08
0.000432941
6.73399e-08
0.000432997
-5.65145e-08
0.00043292
7.74568e-08
0.000432983
-6.33451e-08
0.000432896
8.74314e-08
0.000432966
-7.00712e-08
0.000432868
9.80812e-08
0.000432944
-7.586e-08
0.000432835
1.09158e-07
0.000432915
-8.08579e-08
0.000432795
1.2068e-07
0.00043288
-8.47571e-08
0.000432747
1.32498e-07
0.000432834
-8.72623e-08
0.000432689
1.45284e-07
0.000432777
-8.75646e-08
0.000432617
1.59135e-07
0.000432703
-8.53732e-08
0.000432528
1.74534e-07
0.000432609
-8.0501e-08
0.000432418
1.91106e-07
0.000432491
-7.3473e-08
0.000432277
2.14086e-07
0.000432329
-5.20115e-08
0.00043203
2.9933e-07
0.000431877
1.52319e-07
0.000430974
9.03792e-07
1.3842e-06
0.000429589
0.000436801
-4.78586e-10
0.000436814
-5.69255e-08
0.000436808
2.52452e-08
0.000436824
-3.10441e-08
0.000436808
6.53066e-08
0.000436821
-3.14344e-08
0.000436795
7.05619e-08
0.00043681
-5.27195e-08
0.000436785
7.25997e-08
0.000436803
-6.40383e-08
0.000436777
8.24977e-08
0.000436794
-6.73362e-08
0.000436767
9.39971e-08
0.00043678
-6.95045e-08
0.000436753
1.04604e-07
0.000436762
-7.24465e-08
0.000436735
1.14785e-07
0.00043674
-7.52632e-08
0.000436712
1.2633e-07
0.000436713
-7.70278e-08
0.000436683
1.39467e-07
0.00043668
-7.82775e-08
0.000436646
1.54366e-07
0.00043664
-7.80759e-08
0.000436602
1.7029e-07
0.00043659
-7.52644e-08
0.000436547
1.87782e-07
0.000436527
-6.73437e-08
0.00043648
2.05915e-07
0.000436447
-5.20162e-08
0.000436397
2.24619e-07
0.000436343
-2.66088e-08
0.00043629
2.44599e-07
0.000436197
1.89083e-08
0.000436108
3.03391e-07
0.000435922
1.33904e-07
0.000435708
5.1308e-07
0.000435308
5.52392e-07
0.000434968
1.24438e-06
1.72801e-06
0.000434624
0.000440645
1.88521e-08
0.000440646
-5.75981e-08
0.000440637
3.38386e-08
0.000440653
-4.64059e-08
0.000440649
6.87838e-08
0.000440659
-4.1007e-08
0.000440647
8.2031e-08
0.000440649
-5.38852e-08
0.000440639
8.23297e-08
0.000440637
-6.22359e-08
0.000440632
8.7702e-08
0.000440625
-6.09628e-08
0.000440625
9.47642e-08
0.000440611
-5.59573e-08
0.000440614
1.01421e-07
0.000440592
-5.05039e-08
0.000440599
1.07799e-07
0.000440569
-4.50408e-08
0.000440579
1.16148e-07
0.000440541
-3.86102e-08
0.000440553
1.27049e-07
0.000440507
-3.16289e-08
0.00044052
1.40642e-07
0.000440465
-2.25527e-08
0.000440479
1.55828e-07
0.000440414
-9.64796e-09
0.000440428
1.73186e-07
0.00044035
1.09731e-08
0.000440365
1.91139e-07
0.000440269
4.36209e-08
0.000440282
2.11437e-07
0.000440163
9.29131e-08
0.000440162
2.45763e-07
0.00044
1.80758e-07
0.000439959
3.43997e-07
0.00043971
3.82772e-07
0.000439595
6.28481e-07
0.000439241
9.06562e-07
0.000439134
1.35131e-06
2.05173e-06
0.00043881
0.000444535
3.20135e-08
0.00044453
-5.32418e-08
0.000444524
4.05908e-08
0.000444529
-5.12298e-08
0.000444531
6.5981e-08
0.000444535
-4.44651e-08
0.000444535
8.20436e-08
0.000444529
-4.77653e-08
0.000444527
8.44827e-08
0.000444516
-5.2193e-08
0.000444516
8.78006e-08
0.000444504
-4.90574e-08
0.000444506
9.29842e-08
0.000444492
-4.14307e-08
0.000444494
9.94836e-08
0.000444475
-3.22608e-08
0.000444477
1.06627e-07
0.000444454
-2.27534e-08
0.000444455
1.15712e-07
0.000444428
-1.14566e-08
0.000444428
1.26634e-07
0.000444394
2.36601e-09
0.000444396
1.39159e-07
0.000444352
2.07756e-08
0.000444356
1.5188e-07
0.0004443
4.66465e-08
0.000444307
1.65768e-07
0.000444235
8.35674e-08
0.000444244
1.81442e-07
0.000444152
1.35786e-07
0.000444159
2.04347e-07
0.00044404
2.11866e-07
0.000444032
2.54542e-07
0.000443869
3.43253e-07
0.000443826
3.87023e-07
0.0004436
6.08338e-07
0.000443504
7.25219e-07
0.000443241
1.1695e-06
0.000443128
1.46449e-06
2.25823e-06
0.000442921
0.000448459
3.84358e-08
0.000448454
-4.7784e-08
0.000448451
4.35205e-08
0.000448447
-4.70484e-08
0.000448452
6.04116e-08
0.000448449
-4.10439e-08
0.000448456
7.51442e-08
0.000448446
-3.76356e-08
0.000448449
8.06682e-08
0.000448434
-3.66389e-08
0.000448438
8.33686e-08
0.000448421
-3.14304e-08
0.000448426
8.75405e-08
0.000448407
-2.2149e-08
0.000448413
9.37618e-08
0.00044839
-1.00882e-08
0.000448395
1.01902e-07
0.000448369
3.51509e-09
0.000448373
1.11297e-07
0.000448341
2.03697e-08
0.000448347
1.21206e-07
0.000448307
4.21919e-08
0.000448315
1.31423e-07
0.000448265
7.07542e-08
0.000448275
1.4153e-07
0.000448213
1.0911e-07
0.000448225
1.53451e-07
0.000448148
1.60489e-07
0.000448159
1.70303e-07
0.000448066
2.29426e-07
0.000448068
2.01515e-07
0.000447952
3.28156e-07
0.000447934
2.72703e-07
0.000447785
4.91781e-07
0.00044773
4.41912e-07
0.000447544
7.94404e-07
0.000447443
8.26407e-07
0.000447251
1.36218e-06
0.000447135
1.57955e-06
2.36936e-06
0.000447024
0.000452413
4.27707e-08
0.000452416
-5.0779e-08
0.000452407
5.31156e-08
0.000452407
-4.68267e-08
0.000452403
6.41748e-08
0.000452403
-4.15856e-08
0.000452404
7.45514e-08
0.0004524
-3.39265e-08
0.0004524
8.0763e-08
0.00045239
-2.59858e-08
0.00045239
8.25952e-08
0.000452375
-1.57915e-08
0.000452378
8.37496e-08
0.000452358
-1.69335e-09
0.000452366
8.58938e-08
0.000452339
1.69018e-08
0.000452351
9.01892e-08
0.000452315
3.8994e-08
0.00045233
9.59431e-08
0.000452286
6.46396e-08
0.000452304
1.03038e-07
0.000452252
9.48337e-08
0.000452272
1.11598e-07
0.000452211
1.31706e-07
0.00045223
1.22409e-07
0.000452161
1.77973e-07
0.000452176
1.3856e-07
0.000452099
2.36894e-07
0.000452104
1.65284e-07
0.00045202
3.13883e-07
0.000452006
2.15238e-07
0.000451911
4.23826e-07
0.000451866
3.17396e-07
0.000451755
6.02917e-07
0.000451666
5.30979e-07
0.000451541
9.18877e-07
0.00045141
9.57215e-07
0.000451295
1.47793e-06
0.000451163
1.71106e-06
2.39768e-06
0.000451135
0.000456403
4.45068e-08
0.000456407
-5.48144e-08
0.000456401
5.95044e-08
0.000456397
-4.29372e-08
0.000456394
6.74633e-08
0.000456388
-3.64188e-08
0.000456393
7.02732e-08
0.000456384
-2.49373e-08
0.000456391
7.3833e-08
0.000456373
-8.69721e-09
0.000456382
7.34696e-08
0.000456358
8.97629e-09
0.000456371
7.03983e-08
0.00045634
2.97058e-08
0.000456358
6.7541e-08
0.00045632
5.50437e-08
0.000456342
6.80416e-08
0.000456297
8.43244e-08
0.000456321
7.18733e-08
0.000456269
1.16153e-07
0.000456293
7.95633e-08
0.000456237
1.50678e-07
0.000456257
9.15025e-08
0.000456199
1.89905e-07
0.000456211
1.09935e-07
0.000456153
2.36433e-07
0.000456152
1.38816e-07
0.000456095
2.94361e-07
0.000456076
1.84357e-07
0.000456019
3.71102e-07
0.000455973
2.607e-07
0.000455913
4.83985e-07
0.000455832
3.98347e-07
0.000455766
6.69164e-07
0.000455643
6.53692e-07
0.000455573
9.8946e-07
0.000455421
1.10876e-06
0.000455363
1.53569e-06
0.000455225
1.84925e-06
2.38072e-06
0.000455242
0.00046043
4.16899e-08
0.000460429
-5.43508e-08
0.000460431
5.79291e-08
0.000460418
-3.04036e-08
0.000460423
6.23768e-08
0.000460406
-1.90564e-08
0.00046042
5.58716e-08
0.000460399
-3.26901e-09
0.000460419
5.36723e-08
0.000460389
2.12887e-08
0.000460411
5.10846e-08
0.000460374
4.62185e-08
0.000460399
4.54878e-08
0.000460357
7.16564e-08
0.000460383
4.11759e-08
0.000460339
9.96451e-08
0.000460364
4.27635e-08
0.000460319
1.29714e-07
0.000460339
5.1267e-08
0.000460295
1.60578e-07
0.000460307
6.694e-08
0.000460266
1.91961e-07
0.000460268
8.98944e-08
0.000460231
2.26274e-07
0.000460219
1.22682e-07
0.000460188
2.67282e-07
0.000460158
1.69159e-07
0.000460131
3.20659e-07
0.00046008
2.35828e-07
0.000460055
3.96011e-07
0.000459978
3.37613e-07
0.00045995
5.12258e-07
0.000459843
5.0515e-07
0.000459807
7.04877e-07
0.000459672
7.89184e-07
0.000459628
1.03271e-06
0.000459482
1.25515e-06
0.000459448
1.56927e-06
0.000459327
1.97036e-06
2.35999e-06
0.000459348
0.000464494
3.2526e-08
0.000464481
-4.13591e-08
0.000464497
4.1671e-08
0.000464473
-6.64351e-09
0.000464491
4.47407e-08
0.00046446
1.19445e-08
0.000464484
3.12751e-08
0.000464452
2.93412e-08
0.000464481
2.44399e-08
0.000464444
5.82127e-08
0.000464472
2.33511e-08
0.000464432
8.61209e-08
0.000464457
2.04339e-08
0.000464418
1.10859e-07
0.000464438
2.11858e-08
0.000464402
1.34916e-07
0.000464415
3.07104e-08
0.000464385
1.58919e-07
0.000464386
5.02202e-08
0.000464364
1.82799e-07
0.000464352
7.91098e-08
0.000464337
2.06705e-07
0.000464311
1.16404e-07
0.000464303
2.34136e-07
0.000464261
1.64157e-07
0.000464258
2.70523e-07
0.000464201
2.25874e-07
0.000464199
3.23048e-07
0.000464126
3.08473e-07
0.00046412
4.02814e-07
0.00046403
4.27505e-07
0.000464013
5.29283e-07
0.000463905
6.13017e-07
0.000463873
7.3636e-07
0.000463752
9.10188e-07
0.000463708
1.0768e-06
0.00046359
1.37333e-06
0.000463552
1.60689e-06
0.000463467
2.05559e-06
2.35972e-06
0.000463467
0.000468593
1.74293e-08
0.000468565
-1.35942e-08
0.000468595
1.18593e-08
0.000468565
2.33226e-08
0.000468591
1.84942e-08
0.000468555
4.85835e-08
0.000468581
5.31725e-09
0.000468547
6.31314e-08
0.000468574
-2.5035e-09
0.000468542
8.96009e-08
0.000468562
3.73672e-09
0.000468534
1.1432e-07
0.000468544
1.00006e-08
0.000468522
1.32781e-07
0.000468522
2.10997e-08
0.000468509
1.48464e-07
0.000468497
4.22636e-08
0.000468492
1.63891e-07
0.000468468
7.41063e-08
0.000468471
1.80464e-07
0.000468435
1.15177e-07
0.000468442
1.98929e-07
0.000468395
1.63771e-07
0.000468405
2.23715e-07
0.000468348
2.21302e-07
0.000468357
2.61686e-07
0.000468292
2.91146e-07
0.000468294
3.21041e-07
0.000468221
3.81049e-07
0.000468211
4.13162e-07
0.000468131
5.07762e-07
0.000468103
5.56601e-07
0.000468015
7.00963e-07
0.000467969
7.82333e-07
0.000467878
1.0015e-06
0.00046782
1.13518e-06
0.000467737
1.45634e-06
0.000467685
1.65816e-06
0.000467637
2.10386e-06
2.38086e-06
0.000467616
0.000472724
4.70278e-10
0.00047269
2.04192e-08
0.000472721
-1.85395e-08
0.000472697
4.72454e-08
0.000472721
-5.54687e-09
0.000472693
7.67351e-08
0.000472707
-8.89259e-09
0.000472685
8.5035e-08
0.000472696
-1.36051e-08
0.000472682
1.0323e-07
0.000472683
2.55946e-09
0.000472676
1.21788e-07
0.000472665
2.10268e-08
0.000472665
1.32902e-07
0.000472643
4.26703e-08
0.000472651
1.40794e-07
0.000472619
7.39223e-08
0.000472633
1.50479e-07
0.000472592
1.14481e-07
0.000472609
1.64232e-07
0.000472561
1.62265e-07
0.000472577
1.8341e-07
0.000472525
2.15384e-07
0.000472536
2.12845e-07
0.000472482
2.75147e-07
0.000472484
2.5987e-07
0.00047243
3.45793e-07
0.000472418
3.32541e-07
0.000472362
4.3675e-07
0.000472334
4.41229e-07
0.000472276
5.66342e-07
0.00047223
6.02763e-07
0.000472167
7.63452e-07
0.000472105
8.44671e-07
0.000472041
1.06543e-06
0.000471971
1.20458e-06
0.000471916
1.51181e-06
0.000471856
1.71776e-06
0.000471833
2.12697e-06
2.41143e-06
0.000471803
0.000476886
-1.26878e-08
0.000476859
4.7331e-08
0.000476875
-3.48062e-08
0.000476867
5.56442e-08
0.00047688
-1.81131e-08
0.00047687
8.64324e-08
0.000476866
-4.79291e-09
0.000476861
8.95389e-08
0.000476852
-4.43795e-09
0.000476858
9.72677e-08
0.000476842
1.90546e-08
0.000476852
1.11186e-07
0.000476825
4.82517e-08
0.00047684
1.18341e-07
0.000476805
7.68351e-08
0.000476823
1.22779e-07
0.000476784
1.12875e-07
0.000476803
1.32422e-07
0.000476761
1.56285e-07
0.000476776
1.49431e-07
0.000476733
2.04642e-07
0.000476741
1.75445e-07
0.0004767
2.56316e-07
0.000476698
2.15198e-07
0.00047666
3.1306e-07
0.000476644
2.75554e-07
0.000476609
3.81161e-07
0.000476578
3.63268e-07
0.000476543
4.72186e-07
0.000476497
4.87081e-07
0.000476458
6.05417e-07
0.000476398
6.62244e-07
0.000476354
8.08197e-07
0.000476285
9.13672e-07
0.000476236
1.11372e-06
0.000476166
1.27438e-06
0.000476126
1.55246e-06
0.000476068
1.77554e-06
0.000476056
2.13875e-06
2.4393e-06
0.000476028
0.000481081
-1.79948e-08
0.000481071
5.70241e-08
0.000481067
-3.05305e-08
0.000481073
4.90991e-08
0.000481072
-1.65386e-08
0.000481081
7.76031e-08
0.000481063
1.2662e-08
0.000481071
8.12187e-08
0.000481048
1.92071e-08
0.000481065
8.00444e-08
0.00048104
4.4323e-08
0.000481058
9.26497e-08
0.000481027
7.95438e-08
0.000481044
1.01507e-07
0.00048101
1.10641e-07
0.000481025
1.07629e-07
0.000480992
1.46046e-07
0.000481002
1.21991e-07
0.000480971
1.87697e-07
0.000480974
1.4652e-07
0.000480946
2.32978e-07
0.000480938
1.82622e-07
0.000480914
2.80623e-07
0.000480895
2.34347e-07
0.000480875
3.33437e-07
0.000480843
3.0752e-07
0.000480823
4.00395e-07
0.000480779
4.07377e-07
0.000480757
4.9458e-07
0.000480703
5.41213e-07
0.000480673
6.3512e-07
0.000480612
7.23541e-07
0.000480573
8.46792e-07
0.000480509
9.78346e-07
0.000480465
1.15695e-06
0.000480403
1.3364e-06
0.000480368
1.58729e-06
0.000480319
1.82487e-06
0.00048031
2.14774e-06
2.45837e-06
0.000480291
0.000485312
-1.54314e-08
0.00048532
4.92057e-08
0.000485301
-1.13434e-08
0.000485314
3.58696e-08
0.000485302
-4.10719e-09
0.000485322
5.76563e-08
0.000485301
3.3742e-08
0.000485313
6.888e-08
0.000485286
4.62908e-08
0.000485302
6.38974e-08
0.000485279
6.76225e-08
0.000485295
7.70005e-08
0.00048527
1.04184e-07
0.000485279
9.19037e-08
0.000485255
1.3528e-07
0.000485259
1.03216e-07
0.000485238
1.67186e-07
0.000485236
1.23893e-07
0.000485219
2.05251e-07
0.000485208
1.57137e-07
0.000485194
2.46971e-07
0.000485173
2.03501e-07
0.000485163
2.91182e-07
0.000485131
2.65522e-07
0.000485122
3.42487e-07
0.000485082
3.47694e-07
0.00048507
4.12429e-07
0.000485023
4.54533e-07
0.000485003
5.14218e-07
0.000484952
5.92798e-07
0.000484922
6.65344e-07
0.000484868
7.77534e-07
0.000484828
8.86748e-07
0.000484773
1.03307e-06
0.00048473
1.19966e-06
0.000484678
1.3881e-06
0.000484646
1.61974e-06
0.000484607
1.86403e-06
0.000484598
2.15684e-06
2.46769e-06
0.000484588
0.000489585
-8.27327e-09
0.000489602
3.19844e-08
0.00048958
1.03196e-08
0.000489591
2.55811e-08
0.000489574
1.24387e-08
0.000489594
3.78347e-08
0.000489578
4.91515e-08
0.000489588
5.95531e-08
0.000489566
6.78572e-08
0.000489573
5.7112e-08
0.000489558
8.2969e-08
0.000489565
7.0166e-08
0.000489551
1.17783e-07
0.000489551
9.22315e-08
0.000489537
1.49007e-07
0.00048953
1.10035e-07
0.00048952
1.77402e-07
0.000489507
1.36285e-07
0.000489501
2.11897e-07
0.000489481
1.77262e-07
0.000489476
2.51507e-07
0.000489448
2.31987e-07
0.000489444
2.94972e-07
0.000489409
3.00793e-07
0.000489402
3.48643e-07
0.000489363
3.87198e-07
0.00048935
4.25764e-07
0.000489308
4.96301e-07
0.000489284
5.38222e-07
0.000489241
6.35716e-07
0.000489206
7.00309e-07
0.000489162
8.21691e-07
0.00048912
9.2892e-07
0.000489074
1.0785e-06
0.000489033
1.24108e-06
0.00048899
1.43098e-06
0.00048896
1.64988e-06
0.00048893
1.89396e-06
0.00048892
2.16625e-06
2.46834e-06
0.00048892
0.000493899
-6.08569e-10
0.000493916
1.48813e-08
0.000493901
2.52584e-08
0.000493904
2.247e-08
0.00049389
2.66386e-08
0.0004939
2.74109e-08
0.000493895
5.46172e-08
0.000493898
5.61385e-08
0.000493886
7.98794e-08
0.000493882
6.09523e-08
0.000493875
9.08026e-08
0.000493872
7.22875e-08
0.000493868
1.22134e-07
0.000493861
9.976e-08
0.000493855
1.54896e-07
0.000493841
1.24068e-07
0.000493837
1.81329e-07
0.000493819
1.54505e-07
0.000493817
2.13068e-07
0.000493793
2.01208e-07
0.000493792
2.5267e-07
0.000493763
2.61583e-07
0.000493759
2.98766e-07
0.000493726
3.33377e-07
0.000493717
3.58361e-07
0.000493683
4.20252e-07
0.000493664
4.44923e-07
0.000493631
5.29255e-07
0.000493601
5.68232e-07
0.000493567
6.69692e-07
0.000493529
7.38752e-07
0.000493492
8.5839e-07
0.000493451
9.70505e-07
0.000493411
1.11782e-06
0.000493373
1.27905e-06
0.000493337
1.4673e-06
0.00049331
1.67709e-06
0.000493288
1.91624e-06
0.000493279
2.17523e-06
2.46223e-06
0.000493285
0.000498254
4.21008e-09
0.000498264
4.95277e-09
0.000498259
3.02731e-08
0.000498256
2.52787e-08
0.000498247
3.57222e-08
0.000498247
2.81117e-08
0.000498248
5.30087e-08
0.000498247
5.70309e-08
0.000498243
8.38187e-08
0.000498233
7.0938e-08
0.000498229
9.51698e-08
0.000498221
8.00836e-08
0.000498221
1.22136e-07
0.000498211
1.10013e-07
0.000498209
1.57112e-07
0.000498192
1.40649e-07
0.00049819
1.83421e-07
0.00049817
1.74407e-07
0.00049817
2.13522e-07
0.000498147
2.24363e-07
0.000498144
2.55125e-07
0.000498118
2.87607e-07
0.00049811
3.06788e-07
0.000498084
3.59721e-07
0.000498068
3.74348e-07
0.000498043
4.45496e-07
0.000498018
4.69897e-07
0.000497992
5.54769e-07
0.000497959
6.01512e-07
0.00049793
6.98215e-07
0.000497892
7.76824e-07
0.000497859
8.91396e-07
0.000497821
1.00869e-06
0.000497785
1.15331e-06
0.000497752
1.31289e-06
0.000497721
1.4979e-06
0.000497696
1.7017e-06
0.000497681
1.93181e-06
0.000497673
2.18328e-06
2.45137e-06
0.000497684
0.000502649
5.43875e-09
0.00050265
3.98564e-09
0.000502653
2.67718e-08
0.000502647
3.11585e-08
0.000502644
3.93654e-08
0.000502635
3.65344e-08
0.000502639
4.97886e-08
0.000502636
5.96689e-08
0.000502636
8.33623e-08
0.000502626
8.1331e-08
0.000502621
9.97713e-08
0.000502612
8.99498e-08
0.000502611
1.22323e-07
0.000502602
1.19828e-07
0.0005026
1.58441e-07
0.000502584
1.56631e-07
0.000502581
1.86257e-07
0.000502562
1.93423e-07
0.00050256
2.16211e-07
0.00050254
2.44088e-07
0.000502534
2.61398e-07
0.000502513
3.07901e-07
0.0005025
3.20326e-07
0.00050248
3.79419e-07
0.000502459
3.95866e-07
0.000502439
4.648e-07
0.000502411
4.97925e-07
0.00050239
5.76354e-07
0.000502357
6.34188e-07
0.00050233
7.24993e-07
0.000502296
8.11441e-07
0.000502264
9.2309e-07
0.00050223
1.04246e-06
0.000502198
1.18561e-06
0.000502168
1.34316e-06
0.000502143
1.52295e-06
0.00050212
1.72414e-06
0.00050211
1.94165e-06
0.000502104
2.18967e-06
2.4377e-06
0.000502118
0.000507081
3.9838e-09
0.000507076
9.00297e-09
0.000507083
2.00226e-08
0.000507078
3.64739e-08
0.000507077
3.98917e-08
0.000507067
4.67133e-08
0.000507067
4.93319e-08
0.000507065
6.24569e-08
0.000507066
8.19231e-08
0.000507059
8.88487e-08
0.000507053
1.0552e-07
0.000507043
1.00113e-07
0.00050704
1.24578e-07
0.000507032
1.28628e-07
0.00050703
1.59898e-07
0.000507016
1.70639e-07
0.000507012
1.90751e-07
0.000506995
2.1016e-07
0.000506989
2.22535e-07
0.000506973
2.59575e-07
0.000506962
2.7201e-07
0.000506948
3.22658e-07
0.00050693
3.3813e-07
0.000506915
3.94427e-07
0.000506891
4.19935e-07
0.000506874
4.81561e-07
0.000506846
5.25513e-07
0.000506826
5.9726e-07
0.000506796
6.63649e-07
0.000506769
7.51689e-07
0.000506739
8.41939e-07
0.000506709
9.53405e-07
0.000506678
1.07275e-06
0.00050665
1.21408e-06
0.000506622
1.37078e-06
0.000506602
1.54296e-06
0.000506582
1.74397e-06
0.000506576
1.94759e-06
0.000506573
2.19288e-06
2.42349e-06
0.000506587
0.000511551
1.42717e-09
0.000511544
1.58564e-08
0.000511549
1.46977e-08
0.000511547
3.90057e-08
0.000511547
3.99268e-08
0.00051154
5.40622e-08
0.000511536
5.3187e-08
0.000511534
6.46324e-08
0.000511533
8.20803e-08
0.000511529
9.2838e-08
0.000511523
1.11426e-07
0.000511514
1.10021e-07
0.000511509
1.28757e-07
0.000511501
1.37284e-07
0.000511499
1.61718e-07
0.000511487
1.8233e-07
0.000511481
1.96973e-07
0.000511467
2.23943e-07
0.000511457
2.32649e-07
0.000511445
2.71261e-07
0.000511431
2.86113e-07
0.00051142
3.33533e-07
0.000511401
3.57698e-07
0.000511388
4.07555e-07
0.000511364
4.43312e-07
0.000511347
4.98714e-07
0.000511323
5.50199e-07
0.000511301
6.19188e-07
0.000511275
6.8916e-07
0.000511249
7.78096e-07
0.000511221
8.69199e-07
0.000511194
9.81161e-07
0.000511165
1.10092e-06
0.000511141
1.23817e-06
0.000511116
1.39617e-06
0.0005111
1.55884e-06
0.000511084
1.76038e-06
0.00051108
1.95142e-06
0.000511081
2.1917e-06
2.41016e-06
0.000511094
0.000516059
-7.15843e-10
0.000516053
2.11801e-08
0.000516055
1.30675e-08
0.000516055
3.86675e-08
0.000516054
4.08186e-08
0.000516051
5.7378e-08
0.000516044
5.98653e-08
0.000516042
6.66879e-08
0.00051604
8.42442e-08
0.000516038
9.48105e-08
0.000516033
1.16169e-07
0.000516024
1.19401e-07
0.000516019
1.3413e-07
0.00051601
1.46233e-07
0.000516007
1.64612e-07
0.000515998
1.91468e-07
0.00051599
2.04852e-07
0.000515979
2.3468e-07
0.000515966
2.4562e-07
0.000515957
2.80594e-07
0.000515941
3.01887e-07
0.000515932
3.42935e-07
0.000515913
3.76418e-07
0.000515899
4.21042e-07
0.000515879
4.63982e-07
0.00051586
5.1736e-07
0.000515839
5.71568e-07
0.000515816
6.41788e-07
0.000515794
7.11722e-07
0.000515769
8.02924e-07
0.000515744
8.94446e-07
0.000515719
1.00553e-06
0.000515693
1.12736e-06
0.000515672
1.25845e-06
0.00051565
1.41865e-06
0.000515637
1.57205e-06
0.000515625
1.77245e-06
0.000515622
1.95426e-06
0.000515627
2.18603e-06
2.39749e-06
0.00051564
0.000520605
-1.48257e-09
0.000520603
2.32394e-08
0.000520601
1.53284e-08
0.000520603
3.63791e-08
0.000520601
4.29317e-08
0.000520601
5.7642e-08
0.000520594
6.67732e-08
0.000520591
6.9704e-08
0.000520588
8.72174e-08
0.000520586
9.70733e-08
0.000520583
1.19014e-07
0.000520574
1.2802e-07
0.000520568
1.39977e-07
0.000520559
1.55087e-07
0.000520554
1.69511e-07
0.000520548
1.981e-07
0.000520539
2.14127e-07
0.00052053
2.42865e-07
0.000520516
2.5987e-07
0.000520507
2.89343e-07
0.000520492
3.17298e-07
0.000520482
3.53114e-07
0.000520466
3.92459e-07
0.000520451
4.35982e-07
0.000520433
4.81432e-07
0.000520414
5.37007e-07
0.000520395
5.90594e-07
0.000520373
6.6362e-07
0.000520352
7.32946e-07
0.00052033
8.24866e-07
0.000520306
9.18521e-07
0.000520285
1.02637e-06
0.00052026
1.15167e-06
0.000520243
1.2761e-06
0.000520224
1.43724e-06
0.000520212
1.58394e-06
0.000520205
1.77963e-06
0.000520203
1.95657e-06
0.000520212
2.17643e-06
2.38455e-06
0.000520225
0.000525191
-7.39583e-10
0.000525193
2.21511e-08
0.000525188
2.01379e-08
0.00052519
3.36693e-08
0.000525188
4.56538e-08
0.000525189
5.67532e-08
0.000525183
7.20053e-08
0.000525179
7.40395e-08
0.000525176
9.00926e-08
0.000525173
1.00665e-07
0.000525171
1.20471e-07
0.000525164
1.35409e-07
0.000525158
1.46115e-07
0.00052515
1.63078e-07
0.000525142
1.76642e-07
0.000525138
2.03046e-07
0.000525128
2.23988e-07
0.000525121
2.49682e-07
0.000525107
2.73548e-07
0.000525098
2.98929e-07
0.000525084
3.31008e-07
0.000525072
3.65109e-07
0.000525059
4.05605e-07
0.000525043
4.51977e-07
0.000525028
4.96479e-07
0.000525008
5.56298e-07
0.00052499
6.08571e-07
0.000524971
6.83486e-07
0.00052495
7.53708e-07
0.000524931
8.4369e-07
0.000524908
9.41245e-07
0.00052489
1.04431e-06
0.000524869
1.17307e-06
0.000524853
1.29202e-06
0.000524839
1.4516e-06
0.000524828
1.59485e-06
0.000524825
1.78241e-06
0.000524824
1.95785e-06
0.000524836
2.16399e-06
2.37031e-06
0.00052485
0.000529819
1.09613e-09
0.000529822
1.91784e-08
0.000529816
2.54283e-08
0.000529818
3.22175e-08
0.000529816
4.78639e-08
0.000529816
5.65428e-08
0.000529813
7.47704e-08
0.000529808
7.93702e-08
0.000529805
9.2683e-08
0.000529801
1.05179e-07
0.000529799
1.21942e-07
0.000529794
1.40923e-07
0.000529787
1.52759e-07
0.00052978
1.69646e-07
0.000529772
1.85332e-07
0.000529767
2.07606e-07
0.000529758
2.33352e-07
0.000529751
2.56558e-07
0.000529739
2.85148e-07
0.000529728
3.10019e-07
0.000529717
3.4263e-07
0.000529703
3.78666e-07
0.000529692
4.16894e-07
0.000529676
4.67703e-07
0.000529662
5.10566e-07
0.000529645
5.73768e-07
0.000529627
6.26483e-07
0.000529609
7.00841e-07
0.000529589
7.74018e-07
0.000529573
8.60078e-07
0.000529552
9.61774e-07
0.000529536
1.06045e-06
0.000529518
1.19075e-06
0.000529503
1.30676e-06
0.000529493
1.46195e-06
0.000529484
1.60439e-06
0.000529484
1.78193e-06
0.000529485
1.95704e-06
0.000529499
2.15003e-06
2.35382e-06
0.000529515
0.000534487
3.29441e-09
0.000534491
1.60111e-08
0.000534487
2.94222e-08
0.000534486
3.28923e-08
0.000534485
4.90198e-08
0.000534484
5.77705e-08
0.000534483
7.55197e-08
0.000534477
8.48107e-08
0.000534475
9.53755e-08
0.00053447
1.09679e-07
0.000534468
1.24523e-07
0.000534464
1.44549e-07
0.000534457
1.59715e-07
0.000534452
1.7504e-07
0.000534443
1.94301e-07
0.000534437
2.12904e-07
0.000534429
2.4148e-07
0.000534421
2.64347e-07
0.000534412
2.94277e-07
0.0005344
3.22176e-07
0.00053439
3.52663e-07
0.000534376
3.92705e-07
0.000534365
4.27684e-07
0.000534351
4.82018e-07
0.000534337
5.2465e-07
0.000534322
5.88754e-07
0.000534304
6.44444e-07
0.000534289
7.15911e-07
0.00053427
7.9335e-07
0.000534255
8.74873e-07
0.000534237
9.7953e-07
0.000534222
1.07542e-06
0.000534208
1.20457e-06
0.000534195
1.32029e-06
0.000534188
1.46885e-06
0.00053418
1.6121e-06
0.000534183
1.7791e-06
0.000534186
1.9536e-06
0.000534201
2.13525e-06
2.33473e-06
0.00053422
0.000539198
5.10134e-09
0.0005392
1.40591e-08
0.000539198
3.12072e-08
0.000539196
3.54759e-08
0.000539195
4.94858e-08
0.000539193
6.00793e-08
0.000539193
7.55088e-08
0.000539188
8.92629e-08
0.000539185
9.87754e-08
0.000539181
1.13459e-07
0.000539177
1.28398e-07
0.000539175
1.47062e-07
0.000539168
1.66257e-07
0.000539163
1.80173e-07
0.000539155
2.02231e-07
0.000539149
2.19538e-07
0.000539142
2.48134e-07
0.000539133
2.73099e-07
0.000539126
3.01586e-07
0.000539114
3.34224e-07
0.000539104
3.62118e-07
0.000539091
4.05876e-07
0.00053908
4.3904e-07
0.000539068
4.94387e-07
0.000539053
5.38893e-07
0.000539041
6.01525e-07
0.000539023
6.61727e-07
0.00053901
7.2954e-07
0.000538992
8.10858e-07
0.000538978
8.88827e-07
0.000538963
9.94339e-07
0.00053895
1.08926e-06
0.000538939
1.21511e-06
0.000538927
1.33203e-06
0.000538923
1.4732e-06
0.000538918
1.61745e-06
0.000538922
1.77462e-06
0.000538928
1.94741e-06
0.000538944
2.11973e-06
2.31335e-06
0.000538965
0.000543951
6.09138e-09
0.000543951
1.38981e-08
0.000543951
3.10192e-08
0.000543948
3.89013e-08
0.000543947
5.0025e-08
0.000543945
6.26289e-08
0.000543944
7.59637e-08
0.000543941
9.21513e-08
0.000543937
1.0298e-07
0.000543934
1.16501e-07
0.000543929
1.3301e-07
0.000543927
1.49463e-07
0.000543921
1.71742e-07
0.000543916
1.85756e-07
0.00054391
2.0852e-07
0.000543902
2.27354e-07
0.000543896
2.53623e-07
0.000543887
2.8229e-07
0.000543881
3.08113e-07
0.00054387
3.45091e-07
0.00054386
3.71743e-07
0.000543849
4.17302e-07
0.000543836
4.51275e-07
0.000543826
5.04908e-07
0.000543812
5.52978e-07
0.000543801
6.12684e-07
0.000543785
6.77513e-07
0.000543772
7.42436e-07
0.000543757
8.2593e-07
0.000543743
9.02345e-07
0.000543731
1.00627e-06
0.000543719
1.10189e-06
0.000543711
1.22297e-06
0.000543701
1.34146e-06
0.000543699
1.47574e-06
0.000543696
1.61999e-06
0.000543702
1.76908e-06
0.000543711
1.93843e-06
0.000543727
2.10354e-06
2.29001e-06
0.00054375
0.000548745
6.33346e-09
0.000548744
1.51095e-08
0.000548745
2.9947e-08
0.000548742
4.18416e-08
0.000548741
5.12925e-08
0.000548739
6.4778e-08
0.000548737
7.74158e-08
0.000548736
9.37358e-08
0.000548731
1.07375e-07
0.000548728
1.19411e-07
0.000548724
1.375e-07
0.000548721
1.52536e-07
0.000548716
1.75929e-07
0.00054871
1.91892e-07
0.000548705
2.13488e-07
0.000548697
2.35535e-07
0.000548692
2.58698e-07
0.000548683
2.91052e-07
0.000548677
3.14803e-07
0.000548667
3.54276e-07
0.000548658
3.81659e-07
0.000548648
4.26929e-07
0.000548635
4.63845e-07
0.000548626
5.14245e-07
0.000548613
5.66284e-07
0.000548603
6.22859e-07
0.000548589
6.91307e-07
0.000548576
7.54758e-07
0.000548564
8.38583e-07
0.000548551
9.15214e-07
0.000548541
1.01577e-06
0.00054853
1.11307e-06
0.000548525
1.2286e-06
0.000548518
1.34852e-06
0.000548517
1.47666e-06
0.000548517
1.61976e-06
0.000548523
1.76266e-06
0.000548535
1.92683e-06
0.000548552
2.0868e-06
2.26483e-06
0.000548577
0.000553581
6.19804e-09
0.00055358
1.67726e-08
0.00055358
2.91828e-08
0.000553579
4.34862e-08
0.000553577
5.33823e-08
0.000553575
6.63686e-08
0.000553573
7.97086e-08
0.000553572
9.47817e-08
0.000553568
1.1118e-07
0.000553565
1.22757e-07
0.000553561
1.41262e-07
0.000553557
1.56566e-07
0.000553554
1.79004e-07
0.000553547
1.98237e-07
0.000553543
2.17835e-07
0.000553535
2.43191e-07
0.00055353
2.64074e-07
0.000553522
2.98646e-07
0.000553515
3.22192e-07
0.000553508
3.6179e-07
0.000553498
3.91616e-07
0.000553489
4.35163e-07
0.000553477
4.75884e-07
0.000553468
5.23146e-07
0.000553456
5.78198e-07
0.000553447
6.326e-07
0.000553435
7.0286e-07
0.000553424
7.66396e-07
0.000553413
8.4911e-07
0.000553401
9.26939e-07
0.000553394
1.02342e-06
0.000553384
1.12238e-06
0.00055338
1.23249e-06
0.000553376
1.35315e-06
0.000553376
1.47603e-06
0.000553379
1.61701e-06
0.000553387
1.75518e-06
0.0005534
1.91305e-06
0.000553418
2.06931e-06
2.23815e-06
0.000553445
0.00055846
6.08986e-09
0.000558459
1.80379e-08
0.000558458
2.93873e-08
0.000558458
4.39387e-08
0.000558455
5.57738e-08
0.000558454
6.77516e-08
0.000558452
8.22095e-08
0.00055845
9.60733e-08
0.000558448
1.13941e-07
0.000558444
1.26624e-07
0.000558441
1.4426e-07
0.000558436
1.6123e-07
0.000558434
1.81518e-07
0.000558428
2.04219e-07
0.000558423
2.22182e-07
0.000558417
2.49825e-07
0.000558411
2.69995e-07
0.000558404
3.04909e-07
0.000558396
3.30138e-07
0.00055839
3.68098e-07
0.000558381
4.01212e-07
0.000558373
4.42478e-07
0.000558362
4.86776e-07
0.000558354
5.31927e-07
0.000558343
5.88523e-07
0.000558334
6.421e-07
0.000558324
7.12225e-07
0.000558314
7.77168e-07
0.000558305
8.57726e-07
0.000558295
9.37223e-07
0.000558288
1.0296e-06
0.000558281
1.12954e-06
0.000558279
1.23507e-06
0.000558277
1.35521e-06
0.000558279
1.47409e-06
0.000558284
1.61177e-06
0.000558292
1.74652e-06
0.000558308
1.89754e-06
0.000558327
2.05072e-06
2.21056e-06
0.000558354
0.000563381
6.2395e-09
0.000563381
1.85571e-08
0.000563379
3.0494e-08
0.000563379
4.38871e-08
0.000563377
5.77891e-08
0.000563376
6.9353e-08
0.000563374
8.43109e-08
0.000563372
9.80726e-08
0.00056337
1.15677e-07
0.000563366
1.30694e-07
0.000563363
1.46823e-07
0.000563359
1.65914e-07
0.000563356
1.8413e-07
0.000563351
2.09299e-07
0.000563346
2.26888e-07
0.000563341
2.55316e-07
0.000563334
2.76307e-07
0.000563329
3.10142e-07
0.000563321
3.38041e-07
0.000563316
3.73865e-07
0.000563307