/*--------------------------------*- C++ -*----------------------------------*\
| =========                 |                                                 |
| \\      /  F ield         | OpenFOAM: The Open Source CFD Toolbox           |
|  \\    /   O peration     | Version:  v2012                                 |
|   \\  /    A nd           | Website:  www.openfoam.com                      |
|    \\/     M anipulation  |                                                 |
\*---------------------------------------------------------------------------*/
FoamFile
{
    version     2.0;
    format      ascii;
    class       volVectorField;
    location    "0.05";
    object      U;
}
// * * * * * * * * * * * * * * * * * * * * * * * * * * * * * * * * * * * * * //

dimensions      [0 1 -1 0 0 0 0];


internalField   nonuniform List<vector> 
9600
(
(49.733 -0.000464246 0)
(50.2755 -0.00134476 0)
(49.7215 0.00026162 0)
(50.2835 -0.000324172 0)
(49.7135 0.00122357 0)
(50.2913 -0.000301477 0)
(49.707 0.00116959 0)
(50.2972 -0.000880868 0)
(49.7007 0.00120472 0)
(50.3009 -0.00117812 0)
(49.6949 0.00145292 0)
(50.3033 -0.00136672 0)
(49.6898 0.00178413 0)
(50.3047 -0.00159125 0)
(49.6854 0.00211483 0)
(50.3051 -0.00186799 0)
(49.6815 0.00244457 0)
(50.3042 -0.00215122 0)
(49.6777 0.00279741 0)
(50.3018 -0.00241135 0)
(49.674 0.00315864 0)
(50.2979 -0.00265173 0)
(49.6706 0.00353302 0)
(50.2923 -0.00288033 0)
(49.6673 0.00393397 0)
(50.2844 -0.00311642 0)
(49.6638 0.00439364 0)
(50.2739 -0.0033534 0)
(49.6596 0.00492781 0)
(50.2604 -0.00358416 0)
(49.6536 0.00556266 0)
(50.2435 -0.00381617 0)
(49.6443 0.00631688 0)
(50.222 -0.00407576 0)
(49.6292 0.00721032 0)
(50.1936 -0.00421147 0)
(49.6037 0.00919472 0)
(50.1531 -0.00162069 0)
(49.5598 0.0204015 0)
(50.0935 0.0240364 0)
(49.9204 -0.000321222 0)
(50.0787 -0.00257523 0)
(49.9204 0.000941169 0)
(50.0763 -0.00106945 0)
(49.9226 0.00274745 0)
(50.0734 -0.00108604 0)
(49.9265 0.00280786 0)
(50.0689 -0.00212885 0)
(49.9309 0.00286189 0)
(50.0626 -0.00268856 0)
(49.9355 0.00327264 0)
(50.055 -0.00293453 0)
(49.9407 0.00383404 0)
(50.0467 -0.00316099 0)
(49.9463 0.00436514 0)
(50.0375 -0.00344565 0)
(49.9519 0.00485409 0)
(50.0273 -0.00372214 0)
(49.9576 0.00536116 0)
(50.0156 -0.00392103 0)
(49.9631 0.00587733 0)
(50.0026 -0.0040622 0)
(49.9687 0.00640499 0)
(49.9881 -0.00411972 0)
(49.9741 0.00694279 0)
(49.9718 -0.00408027 0)
(49.9786 0.00750925 0)
(49.9536 -0.00390267 0)
(49.9816 0.0081051 0)
(49.9334 -0.00354127 0)
(49.9817 0.00878535 0)
(49.911 -0.00294522 0)
(49.9772 0.00961263 0)
(49.8855 -0.00194972 0)
(49.9656 0.0110819 0)
(49.8544 0.000446992 0)
(49.9436 0.0164842 0)
(49.8147 0.0119252 0)
(49.91 0.0425747 0)
(49.7696 0.0654836 0)
(49.9988 0.000237531 0)
(49.9977 -0.00201871 0)
(50.0016 0.00107206 0)
(49.9934 -0.00136018 0)
(50.005 0.0025235 0)
(49.9892 -0.00132436 0)
(50.009 0.00291607 0)
(49.9849 -0.00196244 0)
(50.0129 0.00297459 0)
(49.9798 -0.00238476 0)
(50.0161 0.00321828 0)
(49.9744 -0.00242349 0)
(50.019 0.00356844 0)
(49.9691 -0.00233771 0)
(50.0213 0.00390256 0)
(49.9637 -0.00225994 0)
(50.023 0.00421401 0)
(49.9581 -0.00219821 0)
(50.0239 0.0045933 0)
(49.9519 -0.00211487 0)
(50.0238 0.00510724 0)
(49.9452 -0.00205489 0)
(50.023 0.00575144 0)
(49.9379 -0.00196428 0)
(50.0211 0.0064928 0)
(49.9296 -0.00172076 0)
(50.0174 0.00732819 0)
(49.9204 -0.0012317 0)
(50.0113 0.0081583 0)
(49.9101 -0.000370793 0)
(50.0018 0.00899469 0)
(49.8982 0.00105681 0)
(49.9873 0.0100818 0)
(49.8835 0.00368773 0)
(49.9661 0.0126797 0)
(49.8639 0.00993126 0)
(49.9365 0.0219323 0)
(49.8382 0.0293544 0)
(49.9002 0.0524726 0)
(49.8119 0.0818967 0)
(50.0209 0.00125246 0)
(49.9765 -0.00239022 0)
(50.0227 0.00177689 0)
(49.9735 -0.0022623 0)
(50.0244 0.00282103 0)
(49.971 -0.00205673 0)
(50.0261 0.00345386 0)
(49.9689 -0.00222541 0)
(50.0273 0.00354393 0)
(49.9664 -0.00242746 0)
(50.0277 0.0036393 0)
(49.9639 -0.00230239 0)
(50.0275 0.00380367 0)
(49.9616 -0.00198672 0)
(50.0268 0.00399496 0)
(49.9592 -0.00161806 0)
(50.0255 0.00420561 0)
(49.9566 -0.00125694 0)
(50.0234 0.00449635 0)
(49.9535 -0.000884629 0)
(50.0204 0.0049156 0)
(49.9498 -0.000461875 0)
(50.0166 0.00546502 0)
(49.9456 6.286e-05 0)
(50.0118 0.00607069 0)
(49.9404 0.000852828 0)
(50.0053 0.00676675 0)
(49.934 0.00200831 0)
(49.9968 0.0075017 0)
(49.9261 0.00366653 0)
(49.9854 0.0084033 0)
(49.916 0.00610992 0)
(49.9701 0.0100707 0)
(49.9024 0.0102881 0)
(49.9496 0.0143903 0)
(49.884 0.0194806 0)
(49.9232 0.0267912 0)
(49.8608 0.0416368 0)
(49.8935 0.0578925 0)
(49.8383 0.0887946 0)
(50.0186 0.0012891 0)
(49.9802 -0.00178866 0)
(50.0192 0.00161856 0)
(49.9786 -0.00185003 0)
(50.0194 0.00234508 0)
(49.9774 -0.00165291 0)
(50.0196 0.00302789 0)
(49.9766 -0.0016356 0)
(50.0193 0.00328668 0)
(49.9754 -0.00173017 0)
(50.0183 0.0034704 0)
(49.9741 -0.00162277 0)
(50.017 0.00369082 0)
(49.9728 -0.00133506 0)
(50.0152 0.00399288 0)
(49.9713 -0.000944728 0)
(50.013 0.00438077 0)
(49.9693 -0.000524787 0)
(50.0103 0.00483527 0)
(49.9668 -3.7673e-05 0)
(50.0067 0.00527731 0)
(49.9636 0.000646989 0)
(50.0025 0.00573697 0)
(49.9597 0.00159815 0)
(49.9975 0.00615413 0)
(49.9548 0.00297017 0)
(49.9909 0.00657023 0)
(49.9484 0.00486579 0)
(49.9826 0.0070584 0)
(49.9403 0.00744997 0)
(49.9719 0.00791625 0)
(49.9296 0.0111462 0)
(49.9578 0.0100263 0)
(49.9155 0.0171083 0)
(49.9396 0.0157037 0)
(49.8971 0.0285667 0)
(49.9171 0.0299469 0)
(49.8754 0.0518218 0)
(49.893 0.0608637 0)
(49.8557 0.0948979 0)
(50.0108 0.00162139 0)
(49.9886 -0.00185084 0)
(50.0108 0.00197947 0)
(49.9877 -0.00178723 0)
(50.0105 0.00242359 0)
(49.987 -0.00162686 0)
(50.0102 0.002882 0)
(49.9866 -0.00141555 0)
(50.0094 0.00318588 0)
(49.9857 -0.00123654 0)
(50.0081 0.00334247 0)
(49.9846 -0.000968918 0)
(50.0065 0.00347738 0)
(49.9835 -0.000545228 0)
(50.0047 0.00368647 0)
(49.9819 4.94613e-05 0)
(50.0024 0.00397997 0)
(49.9799 0.000765001 0)
(49.9997 0.00431595 0)
(49.9773 0.0015913 0)
(49.9963 0.00463566 0)
(49.974 0.00265038 0)
(49.9923 0.00494747 0)
(49.97 0.00402053 0)
(49.9874 0.00526771 0)
(49.9649 0.00583186 0)
(49.9812 0.00569404 0)
(49.9582 0.0081838 0)
(49.9733 0.00641017 0)
(49.9498 0.0112418 0)
(49.9633 0.00786977 0)
(49.9388 0.0155151 0)
(49.9503 0.0111744 0)
(49.9246 0.0223031 0)
(49.9338 0.0187254 0)
(49.907 0.0345763 0)
(49.914 0.0349422 0)
(49.8875 0.0575395 0)
(49.8938 0.0658703 0)
(49.8708 0.0969209 0)
(50.0052 0.00176036 0)
(49.9946 -0.00217286 0)
(50.005 0.00240458 0)
(49.9938 -0.00185854 0)
(50.0045 0.00277171 0)
(49.9933 -0.00175361 0)
(50.0041 0.00302157 0)
(49.9928 -0.00138618 0)
(50.0034 0.00330407 0)
(49.9919 -0.00088837 0)
(50.002 0.00336198 0)
(49.9908 -0.000329475 0)
(50.0005 0.0033194 0)
(49.9895 0.000400604 0)
(49.9987 0.00325839 0)
(49.9879 0.00133541 0)
(49.9966 0.00326922 0)
(49.9858 0.00245041 0)
(49.9939 0.00335869 0)
(49.983 0.00367989 0)
(49.9906 0.00356241 0)
(49.9796 0.00507538 0)
(49.9868 0.00386111 0)
(49.9755 0.00670657 0)
(49.9821 0.00433907 0)
(49.9703 0.0086702 0)
(49.9761 0.00514089 0)
(49.9635 0.011099 0)
(49.9686 0.00650699 0)
(49.955 0.0142179 0)
(49.959 0.00898417 0)
(49.9442 0.0186227 0)
(49.9467 0.0137739 0)
(49.9305 0.025677 0)
(49.9315 0.0232219 0)
(49.9141 0.0381662 0)
(49.9138 0.0410796 0)
(49.8968 0.0603783 0)
(49.8966 0.0717622 0)
(49.883 0.0964376 0)
(50.0024 0.00179472 0)
(49.9977 -0.00235021 0)
(50.0023 0.00249472 0)
(49.9969 -0.00153887 0)
(50.0017 0.00278602 0)
(49.9963 -0.00127612 0)
(50.0014 0.00265306 0)
(49.9958 -0.000710162 0)
(50.0006 0.00270164 0)
(49.9948 0.000155967 0)
(49.9993 0.00261049 0)
(49.9935 0.00104567 0)
(49.9979 0.00238725 0)
(49.9921 0.00202567 0)
(49.9962 0.00216399 0)
(49.9904 0.00316897 0)
(49.9941 0.00210143 0)
(49.9882 0.00445386 0)
(49.9915 0.00223744 0)
(49.9854 0.00582509 0)
(49.9883 0.00261262 0)
(49.982 0.00723594 0)
(49.9845 0.00323672 0)
(49.9779 0.00876074 0)
(49.9799 0.0042349 0)
(49.9727 0.0105109 0)
(49.974 0.00576795 0)
(49.966 0.0126764 0)
(49.9667 0.00808401 0)
(49.9576 0.0155919 0)
(49.9574 0.0117435 0)
(49.947 0.0199662 0)
(49.9458 0.0179447 0)
(49.9341 0.0272548 0)
(49.9316 0.0288412 0)
(49.9191 0.0400248 0)
(49.9157 0.0475506 0)
(49.9039 0.0617536 0)
(49.9009 0.0773875 0)
(49.8924 0.095196 0)
(50.0013 0.00162248 0)
(49.9991 -0.00217608 0)
(50.0015 0.00210219 0)
(49.9982 -0.000840992 0)
(50.0008 0.00233344 0)
(49.9975 -0.000253255 0)
(50.0005 0.00178176 0)
(49.997 0.000450824 0)
(49.9998 0.00156635 0)
(49.9959 0.00160846 0)
(49.9985 0.00142175 0)
(49.9946 0.00275507 0)
(49.9971 0.00116529 0)
(49.9931 0.0038485 0)
(49.9954 0.00102337 0)
(49.9914 0.00497796 0)
(49.9934 0.00117807 0)
(49.9892 0.0061065 0)
(49.9908 0.00170208 0)
(49.9864 0.0072242 0)
(49.9875 0.00259368 0)
(49.9829 0.00831373 0)
(49.9837 0.00383918 0)
(49.9789 0.00949094 0)
(49.9792 0.00551901 0)
(49.9737 0.0109385 0)
(49.9734 0.00779486 0)
(49.9672 0.0129173 0)
(49.9662 0.0109191 0)
(49.959 0.0158449 0)
(49.9572 0.0154643 0)
(49.9488 0.0205024 0)
(49.9462 0.0225965 0)
(49.9367 0.0283392 0)
(49.933 0.0342287 0)
(49.9231 0.0416527 0)
(49.9188 0.0530111 0)
(49.9097 0.0632057 0)
(49.906 0.0814987 0)
(49.9002 0.0947709 0)
(50.0009 0.00110226 0)
(49.9997 -0.00129325 0)
(50.0015 0.00107579 0)
(49.9988 0.000345505 0)
(50.0006 0.00133681 0)
(49.998 0.00128106 0)
(50.0003 0.000625676 0)
(49.9975 0.00193431 0)
(49.9998 0.000301778 0)
(49.9965 0.00315864 0)
(49.9985 0.000350624 0)
(49.995 0.00428271 0)
(49.997 0.00035919 0)
(49.9936 0.00516658 0)
(49.9954 0.000577013 0)
(49.9919 0.00597844 0)
(49.9933 0.0012103 0)
(49.9897 0.00673146 0)
(49.9907 0.00228358 0)
(49.9869 0.00745223 0)
(49.9874 0.00375905 0)
(49.9836 0.008207 0)
(49.9836 0.00557927 0)
(49.9796 0.00914435 0)
(49.9791 0.0077825 0)
(49.9745 0.010516 0)
(49.9734 0.0105126 0)
(49.968 0.0126334 0)
(49.9663 0.0140605 0)
(49.9601 0.0159577 0)
(49.9577 0.0190343 0)
(49.9504 0.0212775 0)
(49.9472 0.0265608 0)
(49.939 0.0299148 0)
(49.9351 0.0384193 0)
(49.9266 0.0438443 0)
(49.9223 0.0568947 0)
(49.9148 0.0652425 0)
(49.9113 0.083906 0)
(49.9069 0.0953647 0)
(50.0008 0.000365001 0)
(49.9999 0.000156005 0)
(50.0017 -0.000272054 0)
(49.9992 0.00150636 0)
(50.0008 0.000184336 0)
(49.9982 0.00276677 0)
(50.0004 -0.000234919 0)
(49.9978 0.00316814 0)
(50 -0.000531992 0)
(49.9968 0.00408832 0)
(49.9987 -7.96575e-05 0)
(49.9954 0.00501046 0)
(49.9971 0.000424311 0)
(49.994 0.00550722 0)
(49.9955 0.00110549 0)
(49.9924 0.00591903 0)
(49.9934 0.00223722 0)
(49.9903 0.00634912 0)
(49.9908 0.00375982 0)
(49.9876 0.00684832 0)
(49.9875 0.0056175 0)
(49.9842 0.00751064 0)
(49.9837 0.00774934 0)
(49.9803 0.00851002 0)
(49.9793 0.0101907 0)
(49.9752 0.0101291 0)
(49.9737 0.0130551 0)
(49.9689 0.0127192 0)
(49.9669 0.0166681 0)
(49.9612 0.0167376 0)
(49.9586 0.0217144 0)
(49.9519 0.0228862 0)
(49.9487 0.0293512 0)
(49.9413 0.0323146 0)
(49.9375 0.0412691 0)
(49.93 0.0466773 0)
(49.926 0.0594006 0)
(49.9197 0.0677384 0)
(49.9165 0.0850614 0)
(49.9131 0.09648 0)
(50.0007 -0.00034261 0)
(49.9998 0.00159187 0)
(50.0017 -0.00126393 0)
(49.9994 0.00215285 0)
(50.0009 -0.000661541 0)
(49.9983 0.00355234 0)
(50.0003 -0.000427014 0)
(49.9979 0.00371201 0)
(50 -0.000561697 0)
(49.9972 0.00409731 0)
(49.9988 0.00030122 0)
(49.9958 0.00479395 0)
(49.9972 0.00134128 0)
(49.9944 0.00504166 0)
(49.9955 0.00239031 0)
(49.9928 0.0051988 0)
(49.9935 0.00381717 0)
(49.9909 0.00553774 0)
(49.991 0.00557242 0)
(49.9882 0.00608942 0)
(49.9877 0.00753557 0)
(49.9849 0.00693743 0)
(49.984 0.00966241 0)
(49.981 0.00829802 0)
(49.9797 0.0120313 0)
(49.976 0.0104452 0)
(49.9743 0.0147903 0)
(49.9698 0.013674 0)
(49.9677 0.0183378 0)
(49.9623 0.0183787 0)
(49.9598 0.0234556 0)
(49.9535 0.0251877 0)
(49.9505 0.0312983 0)
(49.9437 0.0351246 0)
(49.9402 0.0433734 0)
(49.9335 0.0496261 0)
(49.9299 0.0612161 0)
(49.9244 0.0702239 0)
(49.9217 0.0856154 0)
(49.919 0.0976497 0)
(50.0007 -0.000754619 0)
(49.9995 0.0023907 0)
(50.0014 -0.00141289 0)
(49.9995 0.0021485 0)
(50.0008 -0.000880547 0)
(49.9984 0.00340541 0)
(50 9.75214e-05 0)
(49.9979 0.0035621 0)
(49.9998 0.000224276 0)
(49.9974 0.00348669 0)
(49.9987 0.00124076 0)
(49.9961 0.00403005 0)
(49.9971 0.00264782 0)
(49.9947 0.00430164 0)
(49.9955 0.003874 0)
(49.9932 0.0044207 0)
(49.9935 0.00532148 0)
(49.9913 0.00489578 0)
(49.9911 0.00708592 0)
(49.9887 0.00573848 0)
(49.9879 0.00897157 0)
(49.9855 0.00695553 0)
(49.9844 0.0109172 0)
(49.9816 0.00879366 0)
(49.9802 0.0130796 0)
(49.9768 0.0115368 0)
(49.975 0.0157015 0)
(49.9707 0.0153605 0)
(49.9687 0.0192681 0)
(49.9636 0.0205719 0)
(49.9612 0.0246238 0)
(49.9553 0.0277591 0)
(49.9525 0.0328532 0)
(49.9462 0.0378773 0)
(49.943 0.0451947 0)
(49.937 0.0522758 0)
(49.9338 0.062778 0)
(49.9291 0.0723272 0)
(49.9269 0.0860488 0)
(49.9246 0.0984724 0)
(50.0006 -0.00078376 0)
(49.9992 0.00233304 0)
(50.0009 -0.000850389 0)
(49.9994 0.00171127 0)
(50.0007 -0.000516081 0)
(49.9985 0.00264027 0)
(49.9997 0.000970617 0)
(49.9979 0.00306482 0)
(49.9994 0.00139969 0)
(49.9975 0.0027418 0)
(49.9985 0.00227916 0)
(49.9963 0.00323468 0)
(49.9969 0.00382825 0)
(49.9949 0.00377496 0)
(49.9953 0.00509862 0)
(49.9935 0.00406737 0)
(49.9935 0.00636519 0)
(49.9917 0.00476039 0)
(49.9911 0.00798176 0)
(49.9891 0.0059823 0)
(49.9881 0.00972849 0)
(49.9859 0.00763572 0)
(49.9847 0.0114873 0)
(49.9821 0.00991852 0)
(49.9807 0.0135146 0)
(49.9774 0.0131161 0)
(49.9758 0.0161829 0)
(49.9716 0.0173141 0)
(49.9698 0.0200029 0)
(49.9648 0.0227605 0)
(49.9626 0.0257792 0)
(49.9571 0.0300723 0)
(49.9545 0.0344546 0)
(49.9488 0.0402293 0)
(49.9458 0.0469846 0)
(49.9406 0.0545169 0)
(49.9377 0.0641881 0)
(49.9337 0.0740714 0)
(49.9318 0.0863962 0)
(49.93 0.0989985 0)
(50.0005 -0.000506286 0)
(49.9991 0.0016339 0)
(50.0004 5.01885e-05 0)
(49.9993 0.00122668 0)
(50.0004 0.000165547 0)
(49.9986 0.00174675 0)
(49.9995 0.001719 0)
(49.9978 0.00255962 0)
(49.999 0.00245214 0)
(49.9975 0.00232858 0)
(49.9983 0.00304434 0)
(49.9964 0.0027738 0)
(49.9967 0.0045198 0)
(49.995 0.00364346 0)
(49.995 0.00582989 0)
(49.9936 0.00421197 0)
(49.9933 0.00691948 0)
(49.9918 0.00510196 0)
(49.9911 0.00837206 0)
(49.9893 0.00666842 0)
(49.9882 0.0100273 0)
(49.9861 0.00873123 0)
(49.985 0.0116851 0)
(49.9825 0.0113502 0)
(49.9812 0.0136999 0)
(49.978 0.0147982 0)
(49.9765 0.0165963 0)
(49.9724 0.01915 0)
(49.9707 0.0208554 0)
(49.966 0.024633 0)
(49.964 0.0271389 0)
(49.9589 0.0319484 0)
(49.9564 0.0362041 0)
(49.9513 0.0421321 0)
(49.9486 0.0487812 0)
(49.944 0.0563426 0)
(49.9414 0.0655172 0)
(49.938 0.0754109 0)
(49.9366 0.0867488 0)
(49.9352 0.099179 0)
(50.0004 -0.000152185 0)
(49.9992 0.000821095 0)
(50.0001 0.000808392 0)
(49.9992 0.000938792 0)
(50.0002 0.000866296 0)
(49.9988 0.00113684 0)
(49.9994 0.00208642 0)
(49.9978 0.00223687 0)
(49.9986 0.0031131 0)
(49.9974 0.00235245 0)
(49.998 0.00350598 0)
(49.9965 0.00272785 0)
(49.9966 0.00477861 0)
(49.9951 0.00383988 0)
(49.9948 0.00616389 0)
(49.9936 0.00471685 0)
(49.9932 0.00716172 0)
(49.9919 0.00576524 0)
(49.9912 0.00845255 0)
(49.9895 0.00758603 0)
(49.9884 0.010083 0)
(49.9863 0.00995291 0)
(49.9852 0.011804 0)
(49.9828 0.0127466 0)
(49.9816 0.0139893 0)
(49.9785 0.0162314 0)
(49.9771 0.0172528 0)
(49.9733 0.0205924 0)
(49.9716 0.021994 0)
(49.9673 0.0261008 0)
(49.9652 0.028679 0)
(49.9607 0.0335047 0)
(49.9582 0.03793 0)
(49.9538 0.0438099 0)
(49.9512 0.0503925 0)
(49.9472 0.0579488 0)
(49.945 0.0666767 0)
(49.9421 0.0764409 0)
(49.941 0.0871072 0)
(49.9401 0.0990032 0)
(50.0003 0.000120471 0)
(49.9994 0.000271522 0)
(50 0.00116321 0)
(49.9992 0.000942117 0)
(50 0.00137279 0)
(49.9989 0.00102492 0)
(49.9994 0.00211362 0)
(49.998 0.00216989 0)
(49.9985 0.00335065 0)
(49.9974 0.00269505 0)
(49.9978 0.00375966 0)
(49.9967 0.00299415 0)
(49.9965 0.00480698 0)
(49.9952 0.00417663 0)
(49.9947 0.00628697 0)
(49.9936 0.00535774 0)
(49.9931 0.00731096 0)
(49.992 0.00655517 0)
(49.9912 0.00845213 0)
(49.9896 0.00852902 0)
(49.9886 0.0100948 0)
(49.9865 0.0111005 0)
(49.9855 0.0120241 0)
(49.9831 0.0139548 0)
(49.982 0.0145175 0)
(49.979 0.0173471 0)
(49.9777 0.0181878 0)
(49.9741 0.0216602 0)
(49.9724 0.0233544 0)
(49.9686 0.0272573 0)
(49.9665 0.0302915 0)
(49.9625 0.0348508 0)
(49.9601 0.0395484 0)
(49.9562 0.0453249 0)
(49.9538 0.0518019 0)
(49.9504 0.0593606 0)
(49.9484 0.0676755 0)
(49.946 0.0772288 0)
(49.9452 0.0874046 0)
(49.9447 0.0986308 0)
(50.0003 0.000248631 0)
(49.9996 8.63721e-05 0)
(50 0.00113742 0)
(49.9992 0.00112058 0)
(49.9999 0.00160227 0)
(49.999 0.0013143 0)
(49.9994 0.00199858 0)
(49.9982 0.00225777 0)
(49.9984 0.00330891 0)
(49.9974 0.00312834 0)
(49.9977 0.00395389 0)
(49.9968 0.00342886 0)
(49.9966 0.00480798 0)
(49.9955 0.00454876 0)
(49.9948 0.00630897 0)
(49.9937 0.00600487 0)
(49.9931 0.00743923 0)
(49.9921 0.00736546 0)
(49.9914 0.00851755 0)
(49.9898 0.00936738 0)
(49.9888 0.0102467 0)
(49.9868 0.0120065 0)
(49.9858 0.0124812 0)
(49.9835 0.0148571 0)
(49.9824 0.0153169 0)
(49.9797 0.0181845 0)
(49.9782 0.0192893 0)
(49.9751 0.0225457 0)
(49.9733 0.0247099 0)
(49.9698 0.0283498 0)
(49.9677 0.0317605 0)
(49.9642 0.0361623 0)
(49.9619 0.0409764 0)
(49.9585 0.0467037 0)
(49.9563 0.0530796 0)
(49.9534 0.0604959 0)
(49.9517 0.0686328 0)
(49.9498 0.0777052 0)
(49.9491 0.0877034 0)
(49.9491 0.0980838 0)
(50.0002 0.000219761 0)
(49.9998 0.000225562 0)
(50.0001 0.000891352 0)
(49.9994 0.00133865 0)
(49.9998 0.00162213 0)
(49.9991 0.001746 0)
(49.9995 0.00195166 0)
(49.9985 0.00239209 0)
(49.9985 0.00321121 0)
(49.9976 0.0034452 0)
(49.9976 0.00417592 0)
(49.9969 0.003866 0)
(49.9966 0.00490657 0)
(49.9957 0.00489679 0)
(49.9949 0.00632112 0)
(49.9939 0.0065853 0)
(49.9932 0.0075804 0)
(49.9923 0.00813786 0)
(49.9915 0.00870002 0)
(49.9901 0.0100785 0)
(49.9891 0.0105703 0)
(49.9872 0.0126637 0)
(49.9861 0.0131492 0)
(49.984 0.0154986 0)
(49.9828 0.0163097 0)
(49.9804 0.0188433 0)
(49.9789 0.0204535 0)
(49.9761 0.0233537 0)
(49.9742 0.0259536 0)
(49.9712 0.0294453 0)
(49.9691 0.0330262 0)
(49.966 0.0374702 0)
(49.9638 0.0422061 0)
(49.9609 0.04797 0)
(49.9588 0.0542224 0)
(49.9564 0.06141 0)
(49.9548 0.0695075 0)
(49.9535 0.0779693 0)
(49.9529 0.0879395 0)
(49.9533 0.097451 0)
(50.0001 0.000110762 0)
(49.9999 0.0005218 0)
(50.0002 0.000638683 0)
(49.9996 0.00149639 0)
(49.9997 0.00157179 0)
(49.9992 0.0021067 0)
(49.9994 0.0020667 0)
(49.9988 0.00253271 0)
(49.9986 0.003191 0)
(49.9978 0.00360857 0)
(49.9975 0.00440047 0)
(49.9971 0.00427084 0)
(49.9966 0.00509992 0)
(49.996 0.00524973 0)
(49.9951 0.00636249 0)
(49.9942 0.00705984 0)
(49.9934 0.00777817 0)
(49.9925 0.00877379 0)
(49.9917 0.00905598 0)
(49.9905 0.0106191 0)
(49.9894 0.0110705 0)
(49.9877 0.0131223 0)
(49.9864 0.0139169 0)
(49.9846 0.0160257 0)
(49.9833 0.0172975 0)
(49.9812 0.0195116 0)
(49.9796 0.0215115 0)
(49.9771 0.0242087 0)
(49.9753 0.0270341 0)
(49.9725 0.0305268 0)
(49.9705 0.0341696 0)
(49.9678 0.0386593 0)
(49.9657 0.0433754 0)
(49.9632 0.0490317 0)
(49.9613 0.0552955 0)
(49.9594 0.0621275 0)
(49.9579 0.0702379 0)
(49.9571 0.0781511 0)
(49.9565 0.087968 0)
(49.9573 0.0968882 0)
(50.0001 -1.36131e-06 0)
(49.9999 0.000799123 0)
(50.0002 0.000511883 0)
(49.9997 0.00154321 0)
(49.9997 0.00156259 0)
(49.9993 0.00228631 0)
(49.9993 0.00230656 0)
(49.999 0.00264089 0)
(49.9986 0.00328166 0)
(49.9981 0.00367978 0)
(49.9976 0.0045813 0)
(49.9972 0.00464841 0)
(49.9967 0.00532096 0)
(49.9962 0.00565552 0)
(49.9953 0.00643546 0)
(49.9945 0.00745466 0)
(49.9935 0.00802594 0)
(49.9927 0.00926189 0)
(49.9919 0.00957227 0)
(49.9909 0.0110256 0)
(49.9897 0.0117156 0)
(49.9883 0.0134627 0)
(49.9868 0.0147044 0)
(49.9853 0.0165243 0)
(49.9838 0.0181865 0)
(49.982 0.0202566 0)
(49.9803 0.0224041 0)
(49.9782 0.0251472 0)
(49.9764 0.0279404 0)
(49.974 0.0315882 0)
(49.972 0.0352021 0)
(49.9696 0.0397112 0)
(49.9676 0.0445039 0)
(49.9656 0.049888 0)
(49.9638 0.0563091 0)
(49.9624 0.0626685 0)
(49.9609 0.0708294 0)
(49.9606 0.0782673 0)
(49.9601 0.0878038 0)
(49.9612 0.0963899 0)
(50 -6.58529e-05 0)
(50 0.000953271 0)
(50.0001 0.000550357 0)
(49.9999 0.00148955 0)
(49.9996 0.00163066 0)
(49.9994 0.0023056 0)
(49.9992 0.00258784 0)
(49.9991 0.00275189 0)
(49.9986 0.00344047 0)
(49.9983 0.00376047 0)
(49.9976 0.00469304 0)
(49.9973 0.00498376 0)
(49.9967 0.00553925 0)
(49.9964 0.00606911 0)
(49.9955 0.00659699 0)
(49.9948 0.00776027 0)
(49.9937 0.00833292 0)
(49.993 0.00961589 0)
(49.9921 0.0101554 0)
(49.9913 0.0113871 0)
(49.99 0.0123763 0)
(49.9888 0.0138255 0)
(49.9873 0.0153955 0)
(49.9859 0.0170782 0)
(49.9844 0.0189398 0)
(49.9828 0.021048 0)
(49.9812 0.023199 0)
(49.9793 0.0260656 0)
(49.9775 0.0287909 0)
(49.9754 0.0325351 0)
(49.9734 0.0361797 0)
(49.9715 0.0406263 0)
(49.9695 0.0455388 0)
(49.968 0.0506467 0)
(49.9662 0.0571561 0)
(49.9653 0.0631569 0)
(49.9639 0.071217 0)
(49.9639 0.0783558 0)
(49.9636 0.0874845 0)
(49.9649 0.0958743 0)
(49.9999 -6.40797e-05 0)
(50 0.000953698 0)
(49.9999 0.000720694 0)
(50 0.00137797 0)
(49.9996 0.00175313 0)
(49.9995 0.00225057 0)
(49.9991 0.00282796 0)
(49.9992 0.00289809 0)
(49.9986 0.00358279 0)
(49.9985 0.00391206 0)
(49.9977 0.00473921 0)
(49.9975 0.00528502 0)
(49.9968 0.00575004 0)
(49.9966 0.00643667 0)
(49.9957 0.00688087 0)
(49.9951 0.00797637 0)
(49.9939 0.00871447 0)
(49.9934 0.00985916 0)
(49.9923 0.0107402 0)
(49.9917 0.0117588 0)
(49.9903 0.012979 0)
(49.9894 0.0142831 0)
(49.9877 0.0159379 0)
(49.9866 0.0177167 0)
(49.985 0.019546 0)
(49.9836 0.0218611 0)
(49.982 0.0239303 0)
(49.9804 0.026912 0)
(49.9786 0.0296459 0)
(49.9769 0.0333201 0)
(49.9749 0.0371452 0)
(49.9734 0.0413778 0)
(49.9714 0.0464855 0)
(49.9703 0.0513275 0)
(49.9686 0.0578169 0)
(49.9681 0.0636386 0)
(49.9669 0.0713753 0)
(49.9672 0.0784504 0)
(49.967 0.0870058 0)
(49.9685 0.095331 0)
(49.9998 -3.91402e-06 0)
(50 0.000846471 0)
(49.9997 0.000947623 0)
(50.0001 0.00128851 0)
(49.9995 0.00187189 0)
(49.9997 0.00221193 0)
(49.999 0.00297439 0)
(49.9993 0.00308798 0)
(49.9986 0.00368933 0)
(49.9986 0.00411744 0)
(49.9977 0.00478286 0)
(49.9976 0.00552857 0)
(49.9968 0.00596952 0)
(49.9967 0.00672423 0)
(49.9958 0.00724288 0)
(49.9954 0.00816614 0)
(49.9941 0.00911383 0)
(49.9937 0.0100796 0)
(49.9925 0.011247 0)
(49.9921 0.0121764 0)
(49.9906 0.0134994 0)
(49.9899 0.0148189 0)
(49.9883 0.0163961 0)
(49.9873 0.0183683 0)
(49.9856 0.0200921 0)
(49.9845 0.0226192 0)
(49.9828 0.0246424 0)
(49.9815 0.0276697 0)
(49.9797 0.0304808 0)
(49.9784 0.0340074 0)
(49.9764 0.0380273 0)
(49.9753 0.0420382 0)
(49.9732 0.0472966 0)
(49.9726 0.0519428 0)
(49.9709 0.0583277 0)
(49.9708 0.0640544 0)
(49.9697 0.0713966 0)
(49.9704 0.0784721 0)
(49.9703 0.0864411 0)
(49.972 0.094725 0)
(49.9998 8.93105e-05 0)
(50.0001 0.000690208 0)
(49.9995 0.00114301 0)
(50.0001 0.00128245 0)
(49.9994 0.00194008 0)
(49.9997 0.00224464 0)
(49.9989 0.00301024 0)
(49.9993 0.00330987 0)
(49.9986 0.0037727 0)
(49.9988 0.00432433 0)
(49.9978 0.00488018 0)
(49.9978 0.00569225 0)
(49.9968 0.00623367 0)
(49.9969 0.00692678 0)
(49.9958 0.00763392 0)
(49.9957 0.00837726 0)
(49.9943 0.00947521 0)
(49.9941 0.0103572 0)
(49.9927 0.0116214 0)
(49.9925 0.0126586 0)
(49.991 0.0139229 0)
(49.9904 0.0154047 0)
(49.9888 0.0168266 0)
(49.988 0.0189664 0)
(49.9863 0.0206497 0)
(49.9854 0.0232528 0)
(49.9836 0.0253801 0)
(49.9827 0.0283092 0)
(49.9808 0.0312952 0)
(49.9799 0.0346287 0)
(49.9778 0.0387849 0)
(49.9771 0.0426693 0)
(49.9751 0.0479157 0)
(49.9748 0.0525384 0)
(49.9732 0.0586753 0)
(49.9735 0.0644043 0)
(49.9725 0.0713301 0)
(49.9734 0.0783663 0)
(49.9735 0.0858672 0)
(49.9754 0.0939898 0)
(49.9997 0.000181454 0)
(50.0002 0.000562206 0)
(49.9994 0.00125137 0)
(50.0001 0.00136638 0)
(49.9994 0.00196511 0)
(49.9998 0.00233593 0)
(49.9989 0.00299204 0)
(49.9993 0.00351779 0)
(49.9985 0.00387255 0)
(49.9989 0.00449563 0)
(49.9978 0.00502991 0)
(49.998 0.00580402 0)
(49.9968 0.00651187 0)
(49.9971 0.00709516 0)
(49.9959 0.00798939 0)
(49.996 0.00862824 0)
(49.9945 0.0097874 0)
(49.9945 0.0106946 0)
(49.993 0.0119039 0)
(49.9929 0.013154 0)
(49.9913 0.0142905 0)
(49.991 0.0159849 0)
(49.9893 0.0172648 0)
(49.9887 0.0194982 0)
(49.987 0.0212166 0)
(49.9863 0.0237837 0)
(49.9845 0.0261086 0)
(49.9838 0.0288643 0)
(49.9819 0.032062 0)
(49.9814 0.0351975 0)
(49.9793 0.0394385 0)
(49.9789 0.0432503 0)
(49.977 0.0483877 0)
(49.977 0.0530793 0)
(49.9755 0.0588888 0)
(49.976 0.0646878 0)
(49.9753 0.0711694 0)
(49.9764 0.0781621 0)
(49.9765 0.0852599 0)
(49.9787 0.0931481 0)
(49.9996 0.000239225 0)
(50.0004 0.000522948 0)
(49.9994 0.00125607 0)
(50.0002 0.00150913 0)
(49.9993 0.00198128 0)
(49.9999 0.00244641 0)
(49.9989 0.00299061 0)
(49.9994 0.00365476 0)
(49.9984 0.00402819 0)
(49.999 0.00461526 0)
(49.9978 0.00522006 0)
(49.9982 0.00590132 0)
(49.9969 0.00675658 0)
(49.9973 0.00729382 0)
(49.996 0.00825468 0)
(49.9963 0.0089368 0)
(49.9947 0.0100364 0)
(49.9948 0.011072 0)
(49.9933 0.0121544 0)
(49.9933 0.0135974 0)
(49.9917 0.0146648 0)
(49.9915 0.0164847 0)
(49.9898 0.0177522 0)
(49.9895 0.0199513 0)
(49.9876 0.0217834 0)
(49.9873 0.0242499 0)
(49.9853 0.0267713 0)
(49.985 0.0293965 0)
(49.983 0.0327223 0)
(49.9828 0.0357559 0)
(49.9808 0.0399786 0)
(49.9807 0.0437753 0)
(49.9788 0.0487572 0)
(49.9791 0.0535076 0)
(49.9777 0.0590346 0)
(49.9785 0.0648537 0)
(49.9779 0.070959 0)
(49.9793 0.0778613 0)
(49.9794 0.0846048 0)
(49.9818 0.092248 0)
(49.9995 0.000258936 0)
(50.0005 0.000562798 0)
(49.9994 0.00119708 0)
(50.0002 0.00164967 0)
(49.9992 0.0020162 0)
(50 0.00254982 0)
(49.9989 0.00303269 0)
(49.9995 0.0037218 0)
(49.9984 0.00421909 0)
(49.9991 0.00471197 0)
(49.9978 0.00542125 0)
(49.9984 0.00600868 0)
(49.9969 0.00695643 0)
(49.9975 0.00753139 0)
(49.9961 0.00844782 0)
(49.9965 0.00927364 0)
(49.9949 0.0102364 0)
(49.9952 0.0114601 0)
(49.9936 0.0124043 0)
(49.9937 0.0139804 0)
(49.9921 0.0150537 0)
(49.9921 0.0168929 0)
(49.9903 0.0182806 0)
(49.9903 0.0203345 0)
(49.9883 0.0223434 0)
(49.9882 0.0246622 0)
(49.9862 0.0273586 0)
(49.9862 0.0299121 0)
(49.9841 0.0332676 0)
(49.9843 0.0363097 0)
(49.9822 0.0403999 0)
(49.9825 0.0442607 0)
(49.9806 0.0490233 0)
(49.9812 0.0538345 0)
(49.9799 0.0591205 0)
(49.981 0.0648917 0)
(49.9804 0.0707309 0)
(49.9821 0.0774385 0)
(49.9822 0.0839346 0)
(49.9849 0.0912723 0)
(49.9995 0.000254727 0)
(50.0005 0.000638378 0)
(49.9993 0.00114729 0)
(50.0003 0.00173282 0)
(49.9992 0.00209424 0)
(50.0001 0.00262745 0)
(49.9989 0.00311824 0)
(49.9996 0.00375607 0)
(49.9983 0.00439202 0)
(49.9992 0.00483259 0)
(49.9978 0.00558777 0)
(49.9985 0.00615405 0)
(49.997 0.00710047 0)
(49.9977 0.007789 0)
(49.9962 0.00861479 0)
(49.9968 0.00958771 0)
(49.9951 0.0104393 0)
(49.9955 0.0118029 0)
(49.9939 0.0126884 0)
(49.9942 0.0143025 0)
(49.9925 0.0154418 0)
(49.9927 0.0172407 0)
(49.9908 0.0187912 0)
(49.991 0.0206979 0)
(49.989 0.0228586 0)
(49.9892 0.0250478 0)
(49.9871 0.027867 0)
(49.9874 0.0303911 0)
(49.9853 0.0337312 0)
(49.9857 0.0368179 0)
(49.9837 0.0407408 0)
(49.9842 0.0446874 0)
(49.9825 0.0492028 0)
(49.9833 0.0540767 0)
(49.982 0.0591244 0)
(49.9833 0.0648319 0)
(49.9828 0.0704618 0)
(49.9848 0.0769154 0)
(49.985 0.0832536 0)
(49.9879 0.0902132 0)
(49.9994 0.000241155 0)
(50.0006 0.000712305 0)
(49.9993 0.00114439 0)
(50.0004 0.00175025 0)
(49.9991 0.00220018 0)
(50.0002 0.00268159 0)
(49.9988 0.00323198 0)
(49.9998 0.00378952 0)
(49.9983 0.00451865 0)
(49.9993 0.00498376 0)
(49.9979 0.00571251 0)
(49.9987 0.00634137 0)
(49.9971 0.00719815 0)
(49.9979 0.00804929 0)
(49.9963 0.0087789 0)
(49.9971 0.0098637 0)
(49.9953 0.0106656 0)
(49.9959 0.0120746 0)
(49.9941 0.0130164 0)
(49.9947 0.0145649 0)
(49.9928 0.0158305 0)
(49.9933 0.0175401 0)
(49.9913 0.0192524 0)
(49.9918 0.0210665 0)
(49.9897 0.0233 0)
(49.9902 0.0254372 0)
(49.988 0.0282771 0)
(49.9885 0.0308391 0)
(49.9864 0.0341207 0)
(49.9871 0.0372585 0)
(49.9852 0.0410306 0)
(49.986 0.0450221 0)
(49.9843 0.0493323 0)
(49.9853 0.0542155 0)
(49.9841 0.0590599 0)
(49.9857 0.0646806 0)
(49.9852 0.0701361 0)
(49.9875 0.0763269 0)
(49.9876 0.082532 0)
(49.9908 0.0891059 0)
(49.9993 0.000237899 0)
(50.0006 0.000753584 0)
(49.9993 0.00118728 0)
(50.0005 0.00173881 0)
(49.9991 0.00228816 0)
(50.0003 0.00273797 0)
(49.9988 0.00333828 0)
(49.9999 0.00385255 0)
(49.9983 0.00459798 0)
(49.9995 0.0051473 0)
(49.9979 0.00581806 0)
(49.9989 0.00653896 0)
(49.9972 0.0072891 0)
(49.9981 0.00827865 0)
(49.9964 0.00895684 0)
(49.9973 0.0101004 0)
(49.9956 0.0109078 0)
(49.9963 0.0122953 0)
(49.9944 0.0133521 0)
(49.9952 0.0147998 0)
(49.9932 0.0162019 0)
(49.9939 0.0178064 0)
(49.9918 0.0196597 0)
(49.9925 0.0214246 0)
(49.9904 0.0236843 0)
(49.9911 0.0258199 0)
(49.9889 0.0286015 0)
(49.9897 0.0312547 0)
(49.9876 0.0344277 0)
(49.9885 0.0376424 0)
(49.9866 0.0412605 0)
(49.9877 0.0452671 0)
(49.986 0.0494253 0)
(49.9873 0.0542409 0)
(49.9862 0.0589559 0)
(49.988 0.0644207 0)
(49.9875 0.0697636 0)
(49.99 0.0756784 0)
(49.9901 0.0817551 0)
(49.9936 0.0879837 0)
(49.9993 0.000253047 0)
(50.0007 0.000751541 0)
(49.9992 0.00125769 0)
(50.0005 0.00173639 0)
(49.999 0.00234257 0)
(50.0003 0.00281198 0)
(49.9988 0.00341089 0)
(50 0.00395863 0)
(49.9983 0.00463988 0)
(49.9996 0.00530761 0)
(49.9979 0.00591678 0)
(49.9991 0.00671997 0)
(49.9973 0.00740266 0)
(49.9983 0.00845312 0)
(49.9966 0.00915821 0)
(49.9976 0.010294 0)
(49.9958 0.0111615 0)
(49.9967 0.0124848 0)
(49.9947 0.013662 0)
(49.9956 0.0150354 0)
(49.9936 0.0165301 0)
(49.9945 0.018069 0)
(49.9924 0.0199999 0)
(49.9933 0.0217647 0)
(49.9911 0.0240238 0)
(49.9921 0.026173 0)
(49.9899 0.0288743 0)
(49.9908 0.0316098 0)
(49.9888 0.0346721 0)
(49.9899 0.0379647 0)
(49.9881 0.041428 0)
(49.9893 0.0454376 0)
(49.9877 0.0494668 0)
(49.9893 0.0541725 0)
(49.9882 0.0588095 0)
(49.9903 0.0640559 0)
(49.9897 0.0693466 0)
(49.9926 0.0749676 0)
(49.9926 0.0809273 0)
(49.9963 0.0868521 0)
(49.9992 0.000272636 0)
(50.0007 0.000735958 0)
(49.9991 0.00131915 0)
(50.0006 0.00176458 0)
(49.999 0.00237133 0)
(50.0004 0.00289292 0)
(49.9988 0.00345782 0)
(50.0001 0.00408315 0)
(49.9984 0.00467383 0)
(49.9997 0.0054475 0)
(49.998 0.00601448 0)
(49.9993 0.00687622 0)
(49.9974 0.00753927 0)
(49.9986 0.00858429 0)
(49.9967 0.0093683 0)