/*--------------------------------*- C++ -*----------------------------------*\
| =========                 |                                                 |
| \\      /  F ield         | OpenFOAM: The Open Source CFD Toolbox           |
|  \\    /   O peration     | Version:  v2012                                 |
|   \\  /    A nd           | Website:  www.openfoam.com                      |
|    \\/     M anipulation  |                                                 |
\*---------------------------------------------------------------------------*/
FoamFile
{
    version     2.0;
    format      ascii;
    class       volScalarField;
    location    "0.1";
    object      p;
}
// * * * * * * * * * * * * * * * * * * * * * * * * * * * * * * * * * * * * * //

dimensions      [0 2 -2 0 0 0 0];


internalField   nonuniform List<scalar> 
600
(
281.909
285.683
286.064
289.762
291.828
300.912
308.003
329.541
351.065
408.149
281.968
285.417
286.008
289.41
291.929
300.002
308.1
325.91
347.103
378.506
282.046
284.913
285.87
288.783
291.758
298.582
307.035
320.789
338.215
352.219
282.064
284.251
285.526
287.969
291.199
296.787
304.744
314.774
327.282
332.042
281.961
283.492
284.949
287.005
290.194
294.667
301.432
308.401
316.333
316.487
281.688
282.685
284.143
285.889
288.759
292.245
297.449
301.981
306.121
303.579
281.227
281.836
283.14
284.606
286.963
289.551
293.12
295.667
296.814
292.348
280.582
280.934
281.979
283.15
284.896
286.637
288.678
289.545
288.392
282.447
279.774
279.962
280.7
281.537
282.645
283.571
284.27
283.689
280.801
273.739
278.834
278.91
279.331
279.798
280.284
280.432
279.986
278.167
273.985
266.128
277.797
277.777
277.899
277.977
277.878
277.298
275.89
273.037
267.895
259.505
276.695
276.582
276.431
276.123
275.486
274.245
272.031
268.338
262.485
253.763
275.561
275.351
274.955
274.285
273.163
271.336
268.454
264.094
257.718
248.804
274.429
274.122
273.508
272.511
270.96
268.629
265.198
260.317
253.561
244.552
273.336
272.936
272.13
270.847
268.929
266.173
262.299
257.016
249.989
240.947
272.319
271.835
270.866
269.341
267.116
264.013
259.788
254.202
246.987
237.95
271.421
270.866
269.761
268.04
265.569
262.193
257.698
251.888
244.546
235.535
270.686
270.074
268.863
266.992
264.335
260.754
256.063
250.095
242.672
233.694
270.156
269.504
268.22
266.245
263.461
259.743
254.921
248.852
241.381
232.432
269.873
269.201
267.879
265.849
263
259.211
254.323
248.202
240.709
231.776
434.553
306.916
187.193
120.785
94.2477
85.5991
81.5544
77.0512
71.3985
65.018
58.4431
51.7897
45.25
38.6969
32.3381
25.9491
19.8733
13.7167
8.09543
2.21213
388.76
297.535
192.51
127.949
100.147
89.9033
84.4396
78.92
72.6704
65.9619
59.2071
52.4301
45.8074
39.1778
32.7722
26.3281
20.2313
14.0281
8.39735
2.43471
352.592
289.065
201.266
138.761
108.066
95.1883
88.0136
81.3987
74.4425
67.2772
60.2346
53.2569
46.4956
39.7474
33.2598
26.7338
20.5856
14.3189
8.61731
2.55368
326.985
281.164
209.436
150.458
117.236
101.567
92.624
84.8557
77.0355
69.2213
61.7233
54.4311
47.4462
40.5241
33.8964
27.254
20.9972
14.6444
8.79873
2.63396
307.655
272.466
214.462
160.606
126.228
108.2
97.6639
88.8945
80.2731
71.7721
63.727
56.0343
48.7472
41.596
34.7644
27.9656
21.5351
15.0643
9.01441
2.75502
292.259
263.308
216.337
168.571
134.438
114.594
102.593
92.9596
83.6934
74.6007
66.026
57.9171
50.2968
42.8941
35.8241
28.8447
22.1973
15.5802
9.29337
2.92896
279.701
254.608
216.106
174.539
141.742
120.657
107.286
96.8365
87.0429
77.4744
68.4266
59.9165
51.956
44.2983
36.9797
29.8112
22.9318
16.1501
9.61938
3.11932
269.305
246.885
214.703
178.806
148.048
126.33
111.742
100.488
90.2293
80.2836
70.829
61.9445
53.6449
45.7305
38.1626
30.8014
23.6913
16.7323
9.96349
3.29282
260.592
240.241
212.722
181.652
153.275
131.505
115.952
103.922
93.2211
82.9691
73.1766
63.9543
55.3257
47.1528
39.3383
31.781
24.4486
17.3032
10.3065
3.44128
253.211
234.566
210.513
183.377
157.43
136.091
119.887
107.153
96.0154
85.4972
75.4294
65.913
56.9764
48.5459
40.4902
32.7337
25.1893
17.8527
10.6393
3.56984
246.913
229.704
208.283
184.283
160.617
140.041
123.51
110.188
98.6219
87.8521
77.5571
67.7918
58.5778
49.8966
41.607
33.6503
25.9042
18.3762
10.9579
3.68484
241.522
225.52
206.15
184.633
162.993
143.353
126.779
113.017
101.048
90.0275
79.5365
69.5637
60.1088
51.1915
42.6785
34.5234
26.5852
18.8706
11.2593
3.79004
236.911
221.92
204.177
184.628
164.72
146.064
129.66
115.614
103.291
92.0211
81.3511
71.2045
61.5464
52.4152
43.693
35.3457
27.2252
19.3322
11.5407
3.88678
232.988
218.837
202.396
184.412
165.949
148.234
132.134
117.947
105.339
93.8296
82.9895
72.694
62.8681
53.5501
44.6378
36.1089
27.8169
19.7569
11.799
3.97507
229.685
216.227
200.827
184.085
166.804
149.935
134.203
119.99
107.17
95.4449
84.443
74.0163
64.053
54.578
45.4985
36.8035
28.3534
20.1398
12.0312
4.05419
226.954
214.058
199.482
183.716
167.384
151.239
135.884
121.72
108.762
96.8531
85.7014
75.158
65.0826
55.4799
46.2594
37.4182
28.8267
20.4757
12.234
4.12314
224.765
212.313
198.374
183.359
167.766
152.211
137.2
123.127
110.087
98.034
86.7514
76.1058
65.9404
56.2378
46.904
37.9405
29.228
20.7589
12.4042
4.18078
223.102
210.984
197.516
183.052
168.008
152.904
138.177
124.203
111.121
98.9632
87.575
76.8451
66.6103
56.8337
47.4151
38.3561
29.547
20.9827
12.5381
4.22591
221.966
210.074
196.922
182.826
168.151
153.356
138.832
124.939
111.841
99.6135
88.1501
77.3588
67.0758
57.2499
47.7748
38.6496
29.7726
21.1398
12.6319
4.25731
221.376
209.601
196.611
182.704
168.219
153.583
139.168
125.32
112.218
99.9547
88.4517
77.6264
67.3188
57.4673
47.9645
38.8042
29.8922
21.2219
12.6812
4.27312
)
;

boundaryField
{
    top
    {
        type            symmetryPlane;
    }
    bottom
    {
        type            symmetryPlane;
    }
    plate
    {
        type            zeroGradient;
    }
    left
    {
        type            zeroGradient;
    }
    right
    {
        type            fixedValue;
        value           uniform 0;
    }
    frontAndBack
    {
        type            empty;
    }
}


// ************************************************************************* //
