/*--------------------------------*- C++ -*----------------------------------*\
| =========                 |                                                 |
| \\      /  F ield         | OpenFOAM: The Open Source CFD Toolbox           |
|  \\    /   O peration     | Version:  v2012                                 |
|   \\  /    A nd           | Website:  www.openfoam.com                      |
|    \\/     M anipulation  |                                                 |
\*---------------------------------------------------------------------------*/
FoamFile
{
    version     2.0;
    format      ascii;
    class       volVectorField;
    location    "0.1";
    object      U;
}
// * * * * * * * * * * * * * * * * * * * * * * * * * * * * * * * * * * * * * //

dimensions      [0 1 -1 0 0 0 0];


internalField   nonuniform List<vector> 
600
(
(48.481 -0.019224 0)
(51.8257 0.0246761 0)
(47.916 -0.0157896 0)
(52.2894 0.0418657 0)
(47.1169 -0.0159238 0)
(52.8686 0.0616894 0)
(45.7675 0.00460621 0)
(53.5623 0.0965968 0)
(43.2139 0.175889 0)
(54.3052 0.35173 0)
(48.8836 -0.0411284 0)
(51.2617 0.0501508 0)
(48.578 -0.0172183 0)
(51.4176 0.0810864 0)
(48.2279 0.0127076 0)
(51.4198 0.11045 0)
(47.7457 0.118148 0)
(50.9548 0.183135 0)
(47.1231 0.614472 0)
(49.2576 0.845637 0)
(49.3962 -0.0318227 0)
(50.5971 0.0359423 0)
(49.3014 0.0253269 0)
(50.5295 0.0639607 0)
(49.2187 0.104474 0)
(50.2626 0.0929938 0)
(49.0469 0.297796 0)
(49.6077 0.23461 0)
(48.7061 0.961618 0)
(48.5354 1.20882 0)
(49.7575 -0.00823636 0)
(50.1828 0.0127894 0)
(49.7241 0.0707768 0)
(50.0684 0.0515129 0)
(49.6712 0.175221 0)
(49.8232 0.114156 0)
(49.482 0.402458 0)
(49.3731 0.374407 0)
(49.1056 1.08139 0)
(48.9343 1.48311 0)
(49.93 0.0113904 0)
(50.0194 0.00371183 0)
(49.8934 0.0973191 0)
(49.9251 0.0632535 0)
(49.8147 0.212076 0)
(49.7467 0.172051 0)
(49.6116 0.453861 0)
(49.451 0.522577 0)
(49.3146 1.10617 0)
(49.263 1.58372 0)
(49.9902 0.0222949 0)
(49.9794 0.00897451 0)
(49.9494 0.108308 0)
(49.9057 0.0894313 0)
(49.8644 0.230664 0)
(49.7705 0.237788 0)
(49.6942 0.483973 0)
(49.567 0.63333 0)
(49.5144 1.10067 0)
(49.51 1.58432 0)
(50.0055 0.0264839 0)
(49.9776 0.0216292 0)
(49.9697 0.111827 0)
(49.9179 0.118259 0)
(49.8956 0.242529 0)
(49.8145 0.294189 0)
(49.7732 0.505356 0)
(49.6842 0.700705 0)
(49.6941 1.08351 0)
(49.7281 1.53431 0)
(50.0067 0.0270952 0)
(49.984 0.0357304 0)
(49.9796 0.113221 0)
(49.9372 0.143098 0)
(49.9224 0.252182 0)
(49.8643 0.335063 0)
(49.8467 0.520458 0)
(49.7995 0.73188 0)
(49.847 1.05747 0)
(49.9241 1.4566 0)
(50.0039 0.0262104 0)
(49.9914 0.0478493 0)
(49.9855 0.114676 0)
(49.9586 0.161415 0)
(49.9468 0.260015 0)
(49.9162 0.360094 0)
(49.9132 0.527938 0)
(49.9094 0.736115 0)
(49.9764 1.02046 0)
(50.0959 1.36367 0)
(50.0003 0.0249248 0)
(49.9982 0.0565977 0)
(49.9898 0.116302 0)
(49.9803 0.172924 0)
(49.9701 0.264727 0)
(49.9673 0.371272 0)
(49.974 0.525903 0)
(50.0101 0.720823 0)
(50.0873 0.970964 0)
(50.242 1.26235 0)
(49.997 0.0236702 0)
(50.0041 0.0618258 0)
(49.994 0.117233 0)
(50.0008 0.1782 0)
(49.9931 0.264852 0)
(50.0149 0.370833 0)
(50.0303 0.513379 0)
(50.099 0.690799 0)
(50.1835 0.909593 0)
(50.3632 1.15596 0)
(49.9947 0.022494 0)
(50.0087 0.0638955 0)
(49.9988 0.116417 0)
(50.0191 0.177875 0)
(50.0161 0.259408 0)
(50.0577 0.3605 0)
(50.0824 0.490462 0)
(50.1755 0.648947 0)
(50.267 0.838194 0)
(50.4622 1.04594 0)
(49.9933 0.0212585 0)
(50.0123 0.0632721 0)
(50.0042 0.113058 0)
(50.0351 0.172401 0)
(50.0384 0.24798 0)
(50.0955 0.341479 0)
(50.1297 0.457916 0)
(50.2404 0.597169 0)
(50.3386 0.75874 0)
(50.5425 0.932969 0)
(49.9925 0.0197855 0)
(50.0152 0.0603388 0)
(50.0097 0.106738 0)
(50.0491 0.162076 0)
(50.059 0.230579 0)
(50.1283 0.314664 0)
(50.1715 0.41676 0)
(50.2949 0.536887 0)
(50.3989 0.672782 0)
(50.6073 0.817401 0)
(49.9921 0.0179341 0)
(50.0175 0.0553591 0)
(50.0151 0.0973388 0)
(50.0611 0.147153 0)
(50.0775 0.207461 0)
(50.1563 0.280809 0)
(50.2074 0.368016 0)
(50.3401 0.46926 0)
(50.4486 0.581376 0)
(50.6592 0.69942 0)
(49.9919 0.0156245 0)
(50.0195 0.0485169 0)
(50.0198 0.0849439 0)
(50.0713 0.127916 0)
(50.0932 0.17902 0)
(50.1796 0.240615 0)
(50.2373 0.312589 0)
(50.3767 0.395236 0)
(50.4885 0.48519 0)
(50.7 0.579049 0)
(49.9918 0.0128334 0)
(50.0212 0.039975 0)
(50.0238 0.0697563 0)
(50.0797 0.104726 0)
(50.1061 0.145722 0)
(50.1985 0.194756 0)
(50.2611 0.251253 0)
(50.4056 0.315565 0)
(50.5195 0.384614 0)
(50.7312 0.456136 0)
(49.9917 0.00958296 0)
(50.0225 0.0299194 0)
(50.027 0.0520658 0)
(50.0861 0.0780185 0)
(50.1161 0.108096 0)
(50.2128 0.143886 0)
(50.2791 0.184655 0)
(50.4271 0.230799 0)
(50.5424 0.279804 0)
(50.754 0.330321 0)
(49.9916 0.00593376 0)
(50.0234 0.0185868 0)
(50.0292 0.0322565 0)
(50.0906 0.0483264 0)
(50.1229 0.0667538 0)
(50.2226 0.0886749 0)
(50.2913 0.113389 0)
(50.4416 0.141336 0)
(50.5577 0.170727 0)
(50.7691 0.201013 0)
(49.9916 0.00200936 0)
(50.0238 0.00631766 0)
(50.0304 0.0109381 0)
(50.0929 0.0164039 0)
(50.1265 0.0226179 0)
(50.2277 0.0300353 0)
(50.2976 0.0383301 0)
(50.4491 0.0477362 0)
(50.5655 0.0575528 0)
(50.7767 0.0676986 0)
(37.8806 1.99095 0)
(27.2285 1.90642 0)
(20.051 1.13682 0)
(15.3266 0.537851 0)
(12.4405 0.226024 0)
(10.7591 0.0863918 0)
(9.77602 0.0366972 0)
(9.12743 0.0266728 0)
(8.66266 0.0268591 0)
(8.26684 0.0273275 0)
(7.9533 0.0254944 0)
(7.65594 0.0234632 0)
(7.43046 0.0206334 0)
(7.19123 0.0192791 0)
(7.0279 0.0169688 0)
(6.81758 0.0168285 0)
(6.70251 0.0146399 0)
(6.49569 0.0158961 0)
(6.42883 0.0136606 0)
(6.18257 0.0207459 0)
(47.8903 3.91422 0)
(45.4077 4.43898 0)
(42.3043 3.49613 0)
(38.5971 2.35862 0)
(34.8741 1.4956 0)
(31.6009 0.930741 0)
(29.0385 0.594731 0)
(27.0405 0.409781 0)
(25.5457 0.309076 0)
(24.293 0.25063 0)
(23.3315 0.211091 0)
(22.4284 0.182353 0)
(21.7578 0.158878 0)
(21.0378 0.141738 0)
(20.5615 0.126478 0)
(19.932 0.116944 0)
(19.609 0.106395 0)
(18.9965 0.102947 0)
(18.8246 0.0950656 0)
(18.1413 0.10592 0)
(48.782 3.58597 0)
(49.4149 4.68241 0)
(49.6483 4.24927 0)
(48.8093 3.35333 0)
(47.1726 2.56679 0)
(45.1105 1.97354 0)
(43.1273 1.53265 0)
(41.2287 1.20394 0)
(39.6382 0.964804 0)
(38.1142 0.789809 0)
(36.9025 0.663002 0)
(35.6583 0.565283 0)
(34.7476 0.492086 0)
(33.6904 0.431892 0)
(33.0259 0.387411 0)
(32.0699 0.348665 0)
(31.6214 0.321934 0)
(30.6815 0.297602 0)
(30.4487 0.283136 0)
(29.4319 0.278426 0)
(49.0492 2.95806 0)
(49.9229 4.07547 0)
(51.1465 4.04075 0)
(51.741 3.46095 0)
(51.6711 2.87799 0)
(50.977 2.4177 0)
(50.159 2.05535 0)
(49.1211 1.74938 0)
(48.2287 1.50162 0)
(47.1575 1.2942 0)
(46.3262 1.13428 0)
(45.2727 0.995371 0)
(44.5565 0.890807 0)
(43.5355 0.792307 0)
(42.968 0.723954 0)
(41.9611 0.652126 0)
(41.562 0.610556 0)
(40.5271 0.558455 0)
(40.3173 0.538291 0)
(39.1966 0.507773 0)
(49.4334 2.54233 0)
(50.0601 3.47085 0)
(51.2503 3.63546 0)
(52.1757 3.26805 0)
(52.7448 2.8224 0)
(52.7532 2.45784 0)
(52.6856 2.18094 0)
(52.3231 1.93558 0)
(52.0988 1.73342 0)
(51.5911 1.54724 0)
(51.3007 1.40523 0)
(50.681 1.268 0)
(50.375 1.16964 0)
(49.6745 1.06279 0)
(49.4017 0.99499 0)
(48.6338 0.909697 0)
(48.4291 0.867192 0)
(47.5891 0.800247 0)
(47.4795 0.780337 0)
(46.5529 0.733347 0)
(49.7612 2.2781 0)
(50.2436 3.01048 0)
(51.2239 3.2637 0)
(52.0918 3.03838 0)
(52.8108 2.68062 0)
(53.0655 2.36304 0)
(53.3024 2.13413 0)
(53.2688 1.93043 0)
(53.392 1.76807 0)
(53.2511 1.60707 0)
(53.3103 1.48973 0)
(53.0615 1.36728 0)
(53.0701 1.28667 0)
(52.7288 1.18927 0)
(52.7135 1.13362 0)
(52.294 1.05385 0)
(52.2741 1.01875 0)
(51.7842 0.955483 0)
(51.773 0.939302 0)
(51.2201 0.89447 0)
(50.0122 2.07898 0)
(50.431 2.64597 0)
(51.2312 2.92268 0)
(51.9858 2.80228 0)
(52.6871 2.52016 0)
(53.0254 2.23579 0)
(53.3402 2.03246 0)
(53.4443 1.85388 0)
(53.6709 1.71646 0)
(53.7183 1.57425 0)
(53.905 1.47219 0)
(53.8892 1.36325 0)
(54.0288 1.29427 0)
(53.9549 1.21012 0)
(54.0567 1.16336 0)
(53.9348 1.09668 0)
(54.0034 1.06706 0)
(53.8413 1.01695 0)
(53.8774 1.00297 0)
(53.6849 0.971031 0)
(50.207 1.90361 0)
(50.5974 2.34181 0)
(51.254 2.60261 0)
(51.9168 2.55699 0)
(52.5521 2.34598 0)
(52.937 2.09817 0)
(53.2529 1.91298 0)
(53.4313 1.75309 0)
(53.6552 1.6315 0)
(53.8006 1.50527 0)
(53.9944 1.41115 0)
(54.1098 1.31338 0)
(54.263 1.24858 0)
(54.3506 1.17616 0)
(54.4672 1.13228 0)
(54.5363 1.07826 0)
(54.6168 1.04996 0)
(54.6731 1.01295 0)
(54.7149 0.998933 0)
(54.7647 0.979947 0)
(50.3608 1.73627 0)
(50.7378 2.07987 0)
(51.2801 2.30764 0)
(51.8742 2.31057 0)
(52.4325 2.16185 0)
(52.8496 1.95502 0)
(53.1503 1.78676 0)
(53.383 1.6431 0)
(53.581 1.53275 0)
(53.7836 1.4217 0)
(53.9516 1.33314 0)
(54.1391 1.24538 0)
(54.2697 1.18171 0)
(54.4432 1.11847 0)
(54.54 1.0748 0)
(54.7091 1.0302 0)
(54.7747 1.0015 0)
(54.9448 0.973609 0)
(54.9777 0.958965 0)
(55.1533 0.948352 0)
(50.4851 1.57291 0)
(50.8522 1.84822 0)
(51.3066 2.04016 0)
(51.8462 2.07106 0)
(52.3327 1.9723 0)
(52.7655 1.80698 0)
(53.0527 1.65676 0)
(53.325 1.52792 0)
(53.5042 1.42664 0)
(53.7413 1.32959 0)
(53.8879 1.247 0)
(54.1142 1.16857 0)
(54.2254 1.10636 0)
(54.4413 1.05015 0)
(54.5205 1.00689 0)
(54.7353 0.968683 0)
(54.7872 0.940047 0)
(55.0073 0.917585 0)
(55.0323 0.902842 0)
(55.2623 0.896454 0)
(50.5875 1.41354 0)
(50.9429 1.63813 0)
(51.3324 1.79775 0)
(51.8259 1.84207 0)
(52.2523 1.78038 0)
(52.685 1.65323 0)
(52.9629 1.5227 0)
(53.2612 1.40794 0)
(53.4331 1.31496 0)
(53.6901 1.23019 0)
(53.826 1.15467 0)
(54.0726 1.08502 0)
(54.1751 1.02583 0)
(54.4117 0.975279 0)
(54.4828 0.933587 0)
(54.718 0.899883 0)
(54.7632 0.872355 0)
(55.0043 0.85319 0)
(55.0256 0.839045 0)
(55.2778 0.834579 0)
(50.6725 1.2585 0)
(51.0139 1.44335 0)
(51.356 1.57564 0)
(51.8096 1.62417 0)
(52.1882 1.58829 0)
(52.6103 1.49361 0)
(52.8809 1.38365 0)
(53.195 1.28287 0)
(53.3667 1.19826 0)
(53.6356 1.12407 0)
(53.768 1.05637 0)
(54.0254 0.995062 0)
(54.1258 0.94039 0)
(54.3736 0.894863 0)
(54.4427 0.855808 0)
(54.6884 0.825666 0)
(54.7316 0.800056 0)
(54.9832 0.783243 0)
(55.0033 0.770164 0)
(55.2666 0.766659 0)
(50.7427 1.10745 0)
(51.0693 1.25959 0)
(51.3763 1.36898 0)
(51.7958 1.41641 0)
(52.1366 1.39762 0)
(52.5433 1.32898 0)
(52.8065 1.23919 0)
(53.1295 1.15249 0)
(53.3041 1.07675 0)
(53.581 1.01185 0)
(53.713 0.95221 0)
(53.9772 0.898891 0)
(54.0778 0.849801 0)
(54.3331 0.809157 0)
(54.4026 0.773474 0)
(54.6555 0.746531 0)
(54.6986 0.723294 0)
(54.9573 0.708489 0)
(54.9772 0.696717 0)
(55.248 0.693831 0)
(50.7995 0.959527 0)
(51.1124 1.08384 0)
(51.3924 1.17372 0)
(51.7837 1.2172 0)
(52.0944 1.2092 0)
(52.4847 1.16055 0)
(52.7398 1.08938 0)
(53.0673 1.01669 0)
(53.245 0.950412 0)
(53.5283 0.894071 0)
(53.6613 0.842399 0)
(53.9303 0.796736 0)
(54.0317 0.753849 0)
(54.2928 0.71821 0)
(54.3633 0.686399 0)
(54.6221 0.662592 0)
(54.6657 0.641967 0)
(54.9304 0.629063 0)
(54.9503 0.618713 0)
(55.2275 0.616328 0)
(50.8448 0.813669 0)
(51.1457 0.91379 0)
(51.4045 0.986665 0)
(51.7731 1.0247 0)
(52.0596 1.02311 0)
(52.4347 0.989362 0)
(52.6812 0.934511 0)
(53.0103 0.875368 0)
(53.1903 0.819064 0)
(53.4791 0.77102 0)
(53.6133 0.727131 0)
(53.8864 0.688822 0)
(53.9885 0.652434 0)
(54.2543 0.621996 0)
(54.3259 0.594432 0)
(54.5899 0.573842 0)
(54.6341 0.55598 0)
(54.904 0.544957 0)
(54.9241 0.536091 0)
(55.2068 0.534154 0)
(50.8799 0.668808 0)
(51.1709 0.747542 0)
(51.4131 0.805209 0)
(51.7637 0.837018 0)
(52.0309 0.838826 0)
(52.3929 0.815944 0)
(52.6309 0.774919 0)
(52.96 0.728499 0)
(53.1413 0.682457 0)
(53.4347 0.642744 0)
(53.5702 0.606544 0)
(53.8467 0.575342 0)
(53.9493 0.545549 0)
(54.2191 0.520485 0)
(54.2915 0.497468 0)
(54.5599 0.480247 0)
(54.6048 0.46528 0)
(54.8792 0.456155 0)
(54.8996 0.448813 0)
(55.1871 0.44729 0)
(50.9064 0.523888 0)
(51.1895 0.583355 0)
(51.4188 0.627114 0)
(51.7556 0.652249 0)
(52.0077 0.655385 0)
(52.359 0.640341 0)
(52.5894 0.610829 0)
(52.9176 0.576107 0)
(53.0993 0.540386 0)
(53.3963 0.509182 0)
(53.533 0.480702 0)
(53.8125 0.456457 0)
(53.9154 0.433257 0)
(54.1883 0.413685 0)
(54.2613 0.395456 0)
(54.5335 0.381783 0)
(54.5789 0.369854 0)
(54.8573 0.362663 0)
(54.8778 0.35688 0)
(55.1693 0.355741 0)
(50.9254 0.377791 0)
(51.2025 0.41951 0)
(51.4223 0.45026 0)
(51.7489 0.468466 0)
(51.9898 0.471521 0)
(52.333 0.462163 0)
(52.5572 0.442271 0)
(52.8841 0.418244 0)
(53.0657 0.392741 0)
(53.3654 0.370259 0)
(53.5031 0.349626 0)
(53.785 0.332297 0)
(53.8881 0.315658 0)
(54.1634 0.301658 0)
(54.2368 0.288404 0)
(54.5119 0.27847 0)
(54.5578 0.269727 0)
(54.8392 0.26453 0)
(54.8599 0.260339 0)
(55.1546 0.259556 0)
(50.9378 0.229236 0)
(51.2109 0.254145 0)
(51.4242 0.272432 0)
(51.7441 0.283548 0)
(51.9774 0.285633 0)
(52.315 0.280572 0)
(52.5348 0.268987 0)
(52.8606 0.254889 0)
(53.0419 0.239487 0)
(53.3433 0.225938 0)
(53.4818 0.213335 0)
(53.7654 0.202969 0)
(53.8687 0.192879 0)
(54.1456 0.184517 0)
(54.2193 0.176392 0)
(54.4964 0.170387 0)
(54.5426 0.164979 0)
(54.8261 0.161852 0)
(54.847 0.159286 0)
(55.1439 0.15884 0)
(50.944 0.0770832 0)
(51.215 0.0854151 0)
(51.425 0.0914889 0)
(51.7414 0.0952571 0)
(51.9709 0.0959747 0)
(52.3056 0.0943903 0)
(52.5231 0.0905502 0)
(52.8482 0.0859103 0)
(53.0293 0.080724 0)
(53.3316 0.07621 0)
(53.4705 0.0719411 0)
(53.755 0.0685094 0)
(53.8584 0.0651035 0)
(54.1361 0.0623415 0)
(54.2099 0.059579 0)
(54.488 0.057583 0)
(54.5344 0.0557308 0)
(54.8191 0.0546966 0)
(54.8401 0.0538228 0)
(55.1381 0.0536842 0)
)
;

boundaryField
{
    top
    {
        type            symmetryPlane;
    }
    bottom
    {
        type            symmetryPlane;
    }
    plate
    {
        type            noSlip;
    }
    left
    {
        type            uniformFixedValue;
        uniformValue    constant (50 0 0);
        value           uniform (50 0 0);
    }
    right
    {
        type            zeroGradient;
    }
    frontAndBack
    {
        type            empty;
    }
}


// ************************************************************************* //
