/*--------------------------------*- C++ -*----------------------------------*\
| =========                 |                                                 |
| \\      /  F ield         | OpenFOAM: The Open Source CFD Toolbox           |
|  \\    /   O peration     | Version:  v2012                                 |
|   \\  /    A nd           | Website:  www.openfoam.com                      |
|    \\/     M anipulation  |                                                 |
\*---------------------------------------------------------------------------*/
FoamFile
{
    version     2.0;
    format      ascii;
    class       volScalarField;
    location    "0.2";
    object      p;
}
// * * * * * * * * * * * * * * * * * * * * * * * * * * * * * * * * * * * * * //

dimensions      [0 2 -2 0 0 0 0];


internalField   nonuniform List<scalar> 
9600
(
28.5641
28.6244
28.6529
28.6619
28.6599
28.6609
28.6649
28.6776
28.6959
28.7233
28.755
28.7942
28.8345
28.8772
28.9198
28.967
29.0193
29.0813
29.1489
29.2278
29.3111
29.4091
29.5113
29.6317
29.7564
29.9043
30.063
30.2544
30.4625
30.7108
30.9838
31.311
31.6796
32.1338
32.6597
33.3224
34.1214
35.1592
36.4464
38.0408
28.5947
28.6153
28.6349
28.6463
28.6577
28.662
28.6721
28.68
28.6995
28.721
28.7561
28.7908
28.8355
28.8744
28.9211
28.9646
29.0204
29.0789
29.1496
29.2252
29.3115
29.4064
29.5114
29.6285
29.7562
29.9002
30.0626
30.2488
30.462
30.7029
30.9836
31.3012
31.681
32.1217
32.6598
33.2934
34.0719
34.9715
35.9915
36.9656
28.612
28.6094
28.6212
28.6348
28.6539
28.6635
28.6769
28.6839
28.7019
28.7205
28.7553
28.7888
28.8342
28.8726
28.9201
28.9631
29.0194
29.0771
29.1483
29.223
29.3096
29.4043
29.509
29.6259
29.753
29.8972
30.0583
30.245
30.456
30.6981
30.9746
31.2929
31.6676
32.103
32.6223
33.2252
33.9252
34.6999
35.5128
36.2476
28.6223
28.6072
28.6132
28.6273
28.649
28.6628
28.6778
28.6863
28.7031
28.7209
28.7536
28.7872
28.8317
28.8707
28.9179
28.9609
29.0178
29.0741
29.146
29.2188
29.3066
29.398
29.506
29.6196
29.7489
29.8907
30.0521
30.2369
30.4469
30.6881
30.9599
31.2781
31.6405
32.0687
32.5541
33.1236
33.7386
34.4202
35.0814
35.6872
28.6279
28.6062
28.609
28.6218
28.6442
28.6597
28.6766
28.6865
28.7035
28.7208
28.7523
28.7853
28.829
28.8684
28.915
28.9585
29.0146
29.0714
29.1418
29.2156
29.3012
29.3945
29.4992
29.615
29.7405
29.8846
30.0411
30.2284
30.4322
30.675
30.9387
31.2551
31.6017
32.017
32.4681
32.9956
33.5422
34.1369
34.6882
35.18
28.6293
28.6048
28.6066
28.6174
28.6406
28.6561
28.6747
28.6846
28.7033
28.7195
28.7514
28.7826
28.8265
28.8644
28.9116
28.9554
29.0099
29.0686
29.1358
29.2124
29.2936
29.3909
29.4895
29.6101
29.7282
29.8776
30.0256
30.2177
30.4121
30.6577
30.9104
31.2222
31.5524
31.9487
32.3689
32.8495
33.3412
33.853
34.3224
34.7143
28.6314
28.6019
28.6028
28.6138
28.6376
28.6537
28.6722
28.6825
28.7009
28.7184
28.7485
28.781
28.8222
28.8624
28.9064
28.953
29.0033
29.0656
29.1279
29.2086
29.2843
29.3856
29.4784
29.6025
29.7154
29.8665
30.0104
30.2011
30.3917
30.6316
30.8794
31.1776
31.4968
31.865
32.261
32.6904
33.1377
33.573
33.9796
34.2877
28.6346
28.5973
28.5971
28.6104
28.6344
28.6525
28.669
28.681
28.6964
28.7171
28.744
28.78
28.8165
28.8608
28.8994
28.9504
28.9952
29.0614
29.1191
29.2028
29.2751
29.3775
29.4682
29.5912
29.7034
29.8506
29.995
30.1783
30.3699
30.5977
30.8443
31.1225
31.4336
31.7696
32.1444
32.5246
32.9317
33.3018
33.6547
33.8987
28.6356
28.5942
28.5892
28.6068
28.63
28.6527
28.6655
28.6801
28.6902
28.7151
28.7379
28.7782
28.8104
28.8579
28.8931
28.946
28.9885
29.0546
29.1119
29.1937
29.2671
29.3657
29.4589
29.5759
29.6915
29.8304
29.9784
30.1506
30.3447
30.5579
30.8028
31.0608
31.3616
31.6681
32.0192
32.3572
32.7236
33.0419
33.344
33.5425
28.6316
28.5958
28.5825
28.602
28.6233
28.6525
28.6626
28.6798
28.685
28.7111
28.732
28.7738
28.8059
28.8528
28.8886
28.9389
28.9832
29.0452
29.1055
29.1818
29.2592
29.3511
29.4489
29.558
29.6777
29.8077
29.9582
30.1205
30.3137
30.515
30.7536
30.9953
31.2809
31.5631
31.8862
32.1905
32.5148
32.7932
33.0463
33.213
28.6198
28.6015
28.5821
28.597
28.6142
28.6482
28.6604
28.6788
28.6825
28.7053
28.7268
28.7664
28.8024
28.8456
28.885
28.9298
28.9781
29.0339
29.0985
29.1685
29.2498
29.3355
29.4361
29.5395
29.6601
29.7844
29.9332
30.0891
30.2768
30.4697
30.6974
30.9262
31.1925
31.455
31.7476
32.0248
32.3074
32.5543
32.762
32.9038
28.6025
28.6072
28.5879
28.5933
28.6048
28.6389
28.6584
28.6764
28.6827
28.6983
28.7216
28.7566
28.798
28.8373
28.8809
28.9201
28.9715
29.0222
29.0892
29.1553
29.2375
29.3204
29.4198
29.5211
29.6384
29.7604
29.9037
30.0559
30.235
30.421
30.6357
30.8528
31.0987
31.3436
31.6061
31.8597
32.1035
32.3232
32.4915
32.6104
28.5849
28.6087
28.597
28.5919
28.5975
28.6255
28.6529
28.6723
28.6841
28.6926
28.7165
28.7456
28.7912
28.8286
28.8753
28.9117
28.9631
29.0113
29.0771
29.1425
29.2223
29.3053
29.4008
29.502
29.6138
29.7345
29.8709
30.0196
30.1896
30.3684
30.5698
30.7753
31.0012
31.2292
31.4636
31.6947
31.9047
32.0983
32.2349
32.3301
28.5721
28.6043
28.6046
28.5929
28.5933
28.6108
28.6438
28.6659
28.6846
28.6894
28.7114
28.7353
28.7814
28.8195
28.8674
28.9043
28.9531
29.0011
29.0626
29.1293
29.2048
29.2894
29.3798
29.4811
29.5875
29.7057
29.836
29.9794
30.1414
30.3118
30.5005
30.694
30.9007
31.1122
31.321
31.5302
31.7114
31.8789
31.9909
32.0619
28.5656
28.5944
28.6048
28.5951
28.5922
28.5992
28.6317
28.6568
28.6818
28.6882
28.7069
28.7268
28.7694
28.8093
28.857
28.8971
28.9422
28.9911
29.0468
29.1148
29.1858
29.2714
29.3579
29.4575
29.5601
29.6737
29.7992
29.9358
30.0903
30.2519
30.4281
30.6096
30.798
30.993
31.1792
31.3662
31.5238
31.6653
31.7577
31.8057
28.5636
28.5823
28.5986
28.5954
28.5933
28.5931
28.619
28.6452
28.6748
28.6866
28.703
28.7203
28.7566
28.7979
28.8443
28.8887
28.9307
28.9806
29.0309
29.0983
29.1661
29.2504
29.3355
29.4313
29.5318
29.6392
29.7601
29.8893
30.036
30.1892
30.3528
30.5227
30.6938
30.8721
31.0385
31.2032
31.3412
31.4579
31.5337
31.5612
28.5636
28.5717
28.5874
28.5915
28.5936
28.5919
28.6088
28.6325
28.664
28.6823
28.699
28.7155
28.7448
28.7856
28.8297
28.8779
28.9186
28.969
29.0159
29.0802
29.1459
29.2267
29.3116
29.4031
29.5018
29.603
29.7184
29.8407
29.9785
30.1237
30.2751
30.4333
30.589
30.7499
30.8993
31.0422
31.1628
31.2574
31.3171
31.3281
28.5626
28.5634
28.5753
28.584
28.5909
28.5913
28.6019
28.621
28.6505
28.6746
28.6936
28.7114
28.7347
28.773
28.8139
28.8642
28.9057
28.9559
29.0016
29.0607
29.1251
29.2008
29.2857
29.3731
29.4693
29.5658
29.6742
29.7903
29.9183
30.0556
30.1956
30.3415
30.4839
30.6271
30.7613
30.8837
30.9879
31.0635
31.1074
31.1055
28.5589
28.5572
28.565
28.5745
28.585
28.5891
28.5976
28.612
28.637
28.6639
28.6856
28.7066
28.7261
28.7609
28.7981
28.8479
28.8914
28.9407
28.9872
29.0408
29.1034
29.1738
29.2571
29.3417
29.4344
29.5272
29.6281
29.7379
29.8563
29.9847
30.1147
30.248
30.3783
30.5046
30.6241
30.7285
30.8163
30.8761
30.9044
30.8916
28.553
28.5518
28.5569
28.5647
28.5765
28.5842
28.5933
28.6051
28.6247
28.6515
28.6749
28.6996
28.7184
28.7493
28.7832
28.8297
28.8754
28.9235
28.9716
29.021
29.0806
29.1463
29.226
29.3088
29.3971
29.4868
29.5806
29.6833
29.7931
29.9114
30.0325
30.1531
30.2721
30.3833
30.4878
30.5768
30.6479
30.6944
30.708
30.6855
28.5456
28.5456
28.5504
28.5559
28.5668
28.5768
28.5874
28.5993
28.6143
28.6389
28.6622
28.6896
28.7103
28.738
28.7694
28.8109
28.8576
28.9046
28.9541
29.0011
29.0569
29.1186
29.193
29.2738
29.3578
29.4443
29.532
29.6269
29.7288
29.8365
29.9487
30.0575
30.1652
30.2632
30.3528
30.4281
30.4834
30.5175
30.5182
30.4864
28.5378
28.5383
28.5438
28.5482
28.5569
28.5677
28.5793
28.593
28.6053
28.6268
28.6488
28.677
28.7007
28.7264
28.7563
28.7926
28.8382
28.8844
28.9338
28.9806
29.0323
29.0906
29.1591
29.2366
29.317
29.3992
29.4822
29.5689
29.6632
29.7606
29.8633
29.9617
30.0575
30.1445
30.2196
30.2822
30.3231
30.345
30.3348
30.2934
28.5301
28.5301
28.5359
28.5412
28.5476
28.558
28.5695
28.5851
28.5971
28.6154
28.6358
28.6624
28.6891
28.7141
28.743
28.7752
28.8176
28.863
28.9113
28.9587
29.0069
29.0619
29.1248
29.1976
29.2746
29.352
29.4309
29.5099
29.5964
29.6844
29.7767
29.8658
29.9496
30.0265
30.0884
30.139
30.1671
30.1768
30.1572
30.1066
28.5223
28.5215
28.5268
28.5338
28.5388
28.5482
28.5587
28.5751
28.5887
28.6044
28.6233
28.6471
28.6754
28.7008
28.7289
28.7586
28.7966
28.8407
28.8871
28.9347
28.9807
29.0322
29.0904
29.1572
29.2306
29.303
29.3777
29.4502
29.5284
29.6079
29.6894
29.7695
29.8421
29.9091
29.9595
29.9983
30.0151
30.013
29.9849
29.9258
28.514
28.5131
28.5167
28.5252
28.5304
28.5385
28.5479
28.5635
28.5792
28.5936
28.6112
28.6319
28.6598
28.6864
28.7135
28.742
28.7755
28.8177
28.8619
28.9086
28.9535
29.0011
29.0557
29.1161
29.1851
29.2527
29.3225
29.3897
29.4594
29.5312
29.602
29.6731
29.7352
29.7921
29.8327
29.8602
29.8671
29.8536
29.8174
29.7508
28.505
28.5048
28.5066
28.5152
28.5218
28.5289
28.5375
28.5509
28.568
28.5825
28.5989
28.6174
28.643
28.6706
28.6969
28.7248
28.7547
28.7938
28.836
28.8808
28.9249
28.9689
29.02
29.0746
29.1382
29.2012
29.2656
29.328
29.3898
29.454
29.515
29.5767
29.6292
29.6761
29.7078
29.7247
29.7227
29.6988
29.6546
29.5812
28.4951
28.4962
28.497
28.5042
28.5123
28.519
28.5272
28.5382
28.5553
28.5708
28.5862
28.6033
28.6256
28.6534
28.6794
28.7065
28.7341
28.7692
28.8096
28.8516
28.8948
28.9357
28.9831
29.033
29.0904
29.1489
29.2072
29.2652
29.3198
29.3765
29.4285
29.4804
29.5241
29.561
29.5846
29.5919
29.5815
29.5485
29.4964
29.4168
28.4847
28.4868
28.4879
28.4928
28.5017
28.5087
28.5168
28.5259
28.5414
28.558
28.573
28.5893
28.6083
28.6349
28.6608
28.6872
28.7132
28.7443
28.7824
28.8216
28.8633
28.9015
28.945
28.9908
29.0421
29.0958
29.1479
29.201
29.2492
29.2986
29.3425
29.3848
29.4202
29.4473
29.4631
29.4615
29.4434
29.4024
29.3426
29.2574
28.4742
28.4766
28.4786
28.4817
28.4901
28.4977
28.5057
28.5142
28.5271
28.5441
28.559
28.5748
28.5914
28.6155
28.6413
28.6666
28.6918
28.7191
28.7545
28.791
28.8303
28.8664
28.9056
28.9478
28.9933
29.042
29.0881
29.1357
29.1782
29.2205
29.2571
29.2901
29.3172
29.3351
29.3432
29.3337
29.3083
29.2601
29.1932
29.1028
28.4637
28.4656
28.4687
28.471
28.478
28.486
28.4939
28.5024
28.5129
28.5292
28.5441
28.5596
28.5748
28.5957
28.6208
28.645
28.6695
28.6938
28.7258
28.7598
28.7963
28.8304
28.8653
28.9039
28.9441
28.9877
29.0281
29.0696
29.1067
29.1421
29.1721
29.1964
29.2154
29.2247
29.2251
29.2084
29.1759
29.1216
29.048
28.9526
28.4531
28.4542
28.4577
28.4604
28.4658
28.4738
28.4814
28.4901
28.499
28.5137
28.5285
28.5435
28.5581
28.5758
28.5995
28.6225
28.6463
28.6683
28.6965
28.7278
28.7614
28.7934
28.8243
28.8591
28.8944
28.933
28.9679
29.0031
29.0348
29.0636
29.0876
29.1037
29.1149
29.1161
29.1088
29.0856
29.0461
28.9865
28.9067
28.8069
28.4422
28.4427
28.4458
28.4494
28.4536
28.4611
28.4683
28.4771
28.4852
28.4978
28.5122
28.5265
28.5408
28.556
28.5775
28.5993
28.6219
28.6424
28.6669
28.6953
28.7257
28.7555
28.7829
28.8134
28.8442
28.8778
28.9077
28.9365
28.9626
28.985
29.0033
29.0123
29.0158
29.0093
28.9945
28.9651
28.9192
28.8546
28.7693
28.6653
28.4309
28.4312
28.4335
28.4376
28.4414
28.448
28.4548
28.4632
28.4712
28.4818
28.4954
28.5087
28.5228
28.5362
28.5551
28.5754
28.5965
28.6159
28.6369
28.6623
28.6893
28.7168
28.7409
28.767
28.7935
28.822
28.8474
28.87
28.8905
28.9067
28.9192
28.9219
28.9181
28.9044
28.8821
28.847
28.795
28.7257
28.6356
28.5275
28.4189
28.4196
28.4211
28.4251
28.4289
28.4347
28.4411
28.4487
28.4566
28.4657
28.4782
28.4905
28.5039
28.5162
28.5324
28.5509
28.5703
28.5885
28.6067
28.6288
28.6525
28.6772
28.6984
28.7203
28.7424
28.7659
28.787
28.8038
28.8186
28.8286
28.8354
28.8326
28.8218
28.8015
28.7719
28.7312
28.6737
28.5997
28.5054
28.3933
28.4064
28.4077
28.4088
28.4121
28.416
28.4211
28.4272
28.4338
28.4414
28.4495
28.4606
28.4719
28.4842
28.4956
28.5095
28.5261
28.5434
28.5603
28.5761
28.5949
28.6153
28.637
28.6554
28.6732
28.691
28.7095
28.7264
28.738
28.747
28.7511
28.7521
28.7441
28.727
28.7006
28.6639
28.6176
28.555
28.4766
28.3785
28.2627
28.3935
28.3952
28.3965
28.3989
28.4025
28.4072
28.4129
28.4187
28.4256
28.4328
28.4427
28.453
28.464
28.4745
28.4863
28.5009
28.5161
28.5314
28.545
28.5607
28.5778
28.5961
28.612
28.6258
28.6395
28.653
28.6655
28.6725
28.676
28.6743
28.6693
28.6564
28.6336
28.6014
28.5583
28.5063
28.4391
28.3563
28.2549
28.1354
28.3805
28.3822
28.3839
28.3855
28.3887
28.3928
28.3982
28.4035
28.4094
28.4158
28.4243
28.4337
28.4434
28.4528
28.4628
28.4753
28.4884
28.5019
28.5135
28.5262
28.5401
28.5549
28.568
28.5783
28.5879
28.5966
28.6046
28.6072
28.6055
28.5984
28.5874
28.5697
28.5416
28.5041
28.455
28.3973
28.3258
28.2388
28.1344
28.0115
28.3675
28.3688
28.3708
28.3722
28.3746
28.3781
28.383
28.388
28.393
28.3985
28.4057
28.414
28.4225
28.4306
28.439
28.4493
28.4604
28.4719
28.4815
28.4913
28.5021
28.5135
28.5236
28.5305
28.5362
28.5403
28.5437
28.5421
28.5355
28.5234
28.5064
28.4838
28.4509
28.4085
28.3541
28.2907
28.215
28.124
28.0169
27.891
28.3543
28.3551
28.357
28.3586
28.3604
28.3632
28.3674
28.372
28.3764
28.3808
28.3867
28.3938
28.4012
28.4081
28.4147
28.4231
28.4321
28.4414
28.4491
28.4562
28.464
28.472
28.479
28.4827
28.4845
28.4843
28.4831
28.4773
28.4662
28.4492
28.4267
28.3991
28.3616
28.3145
28.2555
28.1865
28.1068
28.0119
27.9021
27.7738
28.341
28.3412
28.3428
28.3447
28.3461
28.3482
28.3514
28.3556
28.3596
28.363
28.3675
28.3733
28.3796
28.3853
28.3902
28.3965
28.4034
28.4107
28.4163
28.4208
28.4256
28.4303
28.4342
28.4347
28.4328
28.4286
28.4227
28.413
28.3974
28.376
28.3482
28.3156
28.2737
28.2221
28.159
28.0849
28.001
27.9026
27.7901
27.6598
28.3273
28.3273
28.3282
28.3303
28.3315
28.333
28.3353
28.3388
28.3423
28.3449
28.3481
28.3524
28.3576
28.3622
28.3655
28.3697
28.3745
28.3797
28.3833
28.3853
28.3871
28.3886
28.3894
28.3868
28.3813
28.3732
28.3628
28.3491
28.3292
28.3036
28.2711
28.2333
28.1873
28.1313
28.0645
27.9858
27.8977
27.7961
27.6807
27.5488
28.3133
28.3133
28.3136
28.3154
28.3167
28.3177
28.3191
28.3216
28.3247
28.3267
28.3286
28.3314
28.3352
28.3387
28.3406
28.3428
28.3453
28.3484
28.3501
28.3496
28.3486
28.3468
28.3445
28.3389
28.3299
28.3181
28.3034
28.2858
28.2618
28.2321
28.1953
28.1525
28.1025
28.0422
27.9718
27.8892
27.7969
27.6923
27.574
27.4406
28.2989
28.2991
28.299
28.3003
28.3016
28.3022
28.3029
28.3042
28.3066
28.3081
28.309
28.3103
28.3124
28.3149
28.3155
28.3158
28.3161
28.3168
28.3167
28.3139
28.3101
28.3052
28.2997
28.2913
28.2788
28.2635
28.2447
28.223
28.1954
28.1614
28.1207
28.0732
28.0191
27.955
27.881
27.795
27.6986
27.5911
27.4701
27.3351
28.2843
28.2848
28.2844
28.2849
28.2861
28.2864
28.2866
28.2868
28.2883
28.2892
28.2892
28.2892
28.2896
28.2907
28.2902
28.2887
28.2869
28.2851
28.2831
28.2781
28.2717
28.2638
28.2549
28.2438
28.228
28.2093
28.1866
28.1609
28.1298
28.0918
28.0474
27.9955
27.9373
27.8697
27.792
27.703
27.6029
27.4925
27.3689
27.2321
28.2695
28.2701
28.2698
28.2695
28.2703
28.2703
28.2702
28.2694
28.2697
28.2701
28.2692
28.2681
28.2667
28.2663
28.2646
28.2614
28.2577
28.2534
28.2493
28.2424
28.2333
28.2226
28.2104
28.1965
28.1777
28.1556
28.1293
28.0995
28.065
28.0233
27.9752
27.9195
27.8571
27.7861
27.7049
27.6131
27.5098
27.3963
27.2706
27.1318
28.2546
28.2552
28.2551
28.2541
28.2543
28.2541
28.2535
28.2521
28.251
28.2507
28.249
28.2468
28.2439
28.2417
28.2389
28.2341
28.2286
28.2219
28.2154
28.2067
28.1951
28.1818
28.1662
28.1494
28.1279
28.1023
28.0729
28.039
28.0011
27.956
27.9043
27.8451
27.7786
27.7044
27.6199
27.5253
27.4192
27.3026
27.1748
27.0342
28.2397
28.24
28.2401
28.2388
28.2382
28.2376
28.2365
28.2348
28.2324
28.231
28.2286
28.2254
28.2212
28.2171
28.213
28.2067
28.1994
28.1906
28.1816
28.171
28.157
28.1412
28.1226
28.1025
28.0786
28.0498
28.0171
27.9796
27.9381
27.8899
27.8346
27.7722
27.7019
27.6244
27.537
27.4395
27.331
27.2116
27.0817
26.9394
28.2248
28.2247
28.2249
28.2235
28.2221
28.221
28.2194
28.2173
28.2139
28.2113
28.2081
28.2039
28.1986
28.1926
28.1869
28.1794
28.1703
28.1596
28.1479
28.1353
28.1192
28.1008
28.0795
28.0562
28.0297
27.9979
27.9622
27.9213
27.8762
27.825
27.7664
27.7008
27.6271
27.5462
27.4561
27.3558
27.245
27.1232
26.991
26.8472
28.2099
28.2094
28.2093
28.2081
28.2061
28.2044
28.2021
28.1996
28.1956
28.1916
28.1875
28.1822
28.176
28.1683
28.1608
28.152
28.1412
28.1287
28.1146
28.0998
28.0817
28.0608
28.037
28.0105
27.9813
27.9468
27.908
27.8641
27.8154
27.7613
27.6995
27.6309
27.5542
27.4699
27.3772
27.2743
27.1613
27.0373
26.903
26.7577
28.1949
28.1942
28.1937
28.1926
28.1902
28.1878
28.1848
28.1817
28.1773
28.172
28.1668
28.1605
28.1533
28.1443
28.1349
28.1247
28.1122
28.098
28.0817
28.0644
28.0445
28.0212
27.995
27.9656
27.9335
27.8965
27.8547
27.8079
27.7559
27.6987
27.6342
27.5626
27.4831
27.3956
27.3003
27.195
27.0798
26.954
26.8175
26.6708
28.1799
28.1791
28.178
28.1769
28.1743
28.1712
28.1676
28.1637
28.1589
28.1526
28.1462
28.1389
28.1305
28.1204
28.1091
28.0974
28.0835
28.0675
28.0492
28.0295
28.0076
27.9821
27.9535
27.9214
27.8864
27.847
27.8024
27.7529
27.6978
27.6375
27.5703
27.4958
27.4137
27.3234
27.2254
27.1179
27.0006
26.873
26.7347
26.5864
28.1647
28.164
28.1624
28.161
28.1584
28.1548
28.1505
28.1458
28.1405
28.1334
28.1257
28.1173
28.1078
28.0967
28.0838
28.0702
28.0549
28.0372
28.0171
27.995
27.971
27.9435
27.9125
27.878
27.8402
27.7983
27.7511
27.6989
27.641
27.5778
27.5079
27.4307
27.3461
27.2533
27.1526
27.0429
26.9236
26.7944
26.6545
26.5046
28.1495
28.149
28.1472
28.1451
28.1425
28.1384
28.1335
28.1279
28.1219
28.1143
28.1054
28.0959
28.0852
28.073
28.0588
28.0433
28.0265
28.0073
27.9855
27.9612
27.9349
27.9055
27.8723
27.8354
27.7949
27.7506
27.7009
27.646
27.5855
27.5195
27.4471
27.3673
27.2802
27.1851
27.0819
26.9701
26.8489
26.7181
26.5768
26.4255
28.1344
28.1339
28.1321
28.1294
28.1265
28.1221
28.1167
28.1103
28.1034
28.0953
28.0854
28.0746
28.0628
28.0495
28.0341
28.0169
27.9984
27.9777
27.9542
27.928
27.8994
27.8681
27.8328
27.7936
27.7506
27.7037
27.6518
27.5944
27.5314
27.4627
27.3878
27.3057
27.2162
27.1188
27.0134
26.8996
26.7765
26.6441
26.5016
26.349
28.1194
28.1189
28.1171
28.1139
28.1105
28.1059
28.1
28.0929
28.085
28.0763
28.0657
28.0537
28.0407
28.0261
28.0097
27.991
27.9707
27.9484
27.9234
27.8954
27.8647
27.8312
27.7941
27.7527
27.7073
27.658
27.6038
27.5441
27.4786
27.4075
27.3302
27.2458
27.154
27.0545
26.947
26.8313
26.7064
26.5725
26.4288
26.2751
28.1046
28.1039
28.1022
28.0988
28.0947
28.0898
28.0834
28.0758
28.067
28.0574
28.0461
28.0331
28.0189
28.0031
27.9855
27.9655
27.9435
27.9197
27.893
27.8634
27.8307
27.7951
27.7561
27.7127
27.6651
27.6134
27.557
27.4952
27.4274
27.3538
27.2742
27.1877
27.0937
26.9922
26.8828
26.7652
26.6387
26.5032
26.3584
26.2037
28.0901
28.0891
28.0872
28.0838
28.0791
28.0738
28.067
28.0589
28.0493
28.0387
28.0268
28.0128
27.9974
27.9804
27.9616
27.9405
27.9169
27.8914
27.8632
27.832
27.7975
27.7598
27.7189
27.6737
27.624
27.57
27.5114
27.4475
27.3776
27.3017
27.2199
27.1313
27.0354
26.9319
26.8206
26.7014
26.5733
26.4364
26.2904
26.1348
28.0757
28.0745
28.0724
28.069
28.0639
28.058
28.0508
28.0421
28.0319
28.0204
28.0077
27.9929
27.9764
27.9582
27.9382
27.9159
27.891
27.8638
27.8341
27.8013
27.7651
27.7255
27.6826
27.6356
27.584
27.5279
27.4671
27.4012
27.3294
27.2513
27.1674
27.0768
26.9791
26.8737
26.7606
26.6398
26.5103
26.372
26.2249
26.0684
28.0616
28.0603
28.0579
28.0543
28.049
28.0425
28.0348
28.0256
28.0149
28.0025
27.9888
27.9734
27.9559
27.9366
27.9152
27.8918
27.8656
27.8369
27.8056
27.7713
27.7336
27.6922
27.6473
27.5986
27.5452
27.4871
27.4242
27.3563
27.2826
27.2026
27.1166
27.0242
26.9247
26.8176
26.7028
26.5804
26.4496
26.3101
26.1619
26.0046
28.0476
28.0463
28.0436
28.0399
28.0343
28.0274
28.0192
28.0094
27.9982
27.985
27.9704
27.9542
27.9358
27.9154
27.8928
27.8682
27.8409
27.8107
27.7779
27.742
27.7028
27.6599
27.6131
27.5626
27.5075
27.4476
27.3828
27.3129
27.2375
27.1557
27.0677
26.9734
26.8723
26.7637
26.6473
26.5233
26.3913
26.2507
26.1014
25.9432
28.0339
28.0327
28.0298
28.0257
28.02
28.0126
28.0039
27.9936
27.9818
27.968
27.9525
27.9354
27.9161
27.8948
27.8711
27.8452
27.8168
27.7853
27.7511
27.7137
27.673
27.6286
27.5801
27.5278
27.4711
27.4095
27.3428
27.2711
27.1939
27.1105
27.0207
26.9247
26.8219
26.7118
26.594
26.4685
26.3354
26.1937
26.0434
25.8844
28.0206
28.0193
28.0163
28.0119
28.006
27.9983
27.9891
27.9782
27.9657
27.9514
27.9352
27.9172
27.8971
27.8748
27.8501
27.8229
27.7934
27.7607
27.7251
27.6863
27.6441
27.5983
27.5483
27.4943
27.436
27.3727
27.3045
27.2309
27.152
27.067
26.9757
26.8779
26.7735
26.6621
26.543
26.4161
26.2818
26.1391
25.988
25.8283
28.0077
28.0063
28.0032
27.9985
27.9923
27.9843
27.9747
27.9633
27.9502
27.9353
27.9184
27.8995
27.8786
27.8554
27.8297
27.8014
27.7707
27.737
27.7001
27.6599
27.6163
27.5691
27.5177
27.4621
27.4022
27.3374
27.2676
27.1924
27.1118
27.0254
26.9325
26.8332
26.7273
26.6145
26.4942
26.3662
26.2306
26.0871
25.9352
25.7748
27.9952
27.9937
27.9905
27.9856
27.9791
27.9708
27.9607
27.9489
27.9352
27.9197
27.9021
27.8825
27.8607
27.8366
27.8101
27.7808
27.7489
27.714
27.676
27.6346
27.5896
27.541
27.4883
27.4312
27.3698
27.3036
27.2323
27.1556
27.0734
26.9856
26.8913
26.7906
26.6833
26.5692
26.4478
26.3186
26.1819
26.0375
25.8849
25.7239
27.9831
27.9815
27.9782
27.9732
27.9663
27.9577
27.9473
27.935
27.9208
27.9047
27.8865
27.8661
27.8435
27.8186
27.7912
27.761
27.728
27.6921
27.6529
27.6103
27.5641
27.5142
27.4602
27.4018
27.3389
27.2713
27.1987
27.1206
27.0369
26.9476
26.8521
26.7501
26.6415
26.5261
26.4036
26.2735
26.1358
25.9905
25.8371
25.6756
27.9715
27.9699
27.9665
27.9612
27.9541
27.9452
27.9344
27.9217
27.907
27.8903
27.8715
27.8505
27.8271
27.8014
27.7731
27.742
27.708
27.6711
27.6309
27.5872
27.5398
27.4886
27.4334
27.3737
27.3096
27.2407
27.1667
27.0873
27.0023
26.9117
26.8149
26.7117
26.6019
26.4853
26.3618
26.2308
26.0922
25.946
25.792
25.6299
27.9604
27.9588
27.9552
27.9498
27.9425
27.9332
27.9221
27.909
27.8938
27.8766
27.8572
27.8356
27.8115
27.785
27.7559
27.724
27.6891
27.6512
27.6099
27.5652
27.5167
27.4644
27.4081
27.3472
27.2818
27.2117
27.1364
27.0559
26.9697
26.8777
26.7799
26.6755
26.5646
26.447
26.3224
26.1906
26.0512
25.9042
25.7496
25.587
27.9499
27.9482
27.9445
27.9389
27.9314
27.9219
27.9104
27.897
27.8813
27.8636
27.8437
27.8214
27.7968
27.7695
27.7397
27.707
27.6712
27.6323
27.5902
27.5445
27.495
27.4416
27.3841
27.3222
27.2557
27.1844
27.108
27.0263
26.939
26.8459
26.7469
26.6415
26.5296
26.411
26.2855
26.1528
26.0127
25.8651
25.7098
25.5467
27.94
27.9382
27.9344
27.9287
27.921
27.9112
27.8994
27.8856
27.8696
27.8514
27.8309
27.8081
27.7829
27.7549
27.7244
27.6909
27.6544
27.6147
27.5716
27.525
27.4746
27.4202
27.3617
27.2988
27.2312
27.1588
27.0814
26.9987
26.9103
26.8162
26.7161
26.6098
26.497
26.3775
26.2511
26.1177
25.9769
25.8286
25.6728
25.5092
27.9307
27.9289
27.925
27.9191
27.9112
27.9012
27.8891
27.875
27.8586
27.8399
27.819
27.7957
27.7699
27.7413
27.7101
27.676
27.6387
27.5982
27.5543
27.5069
27.4556
27.4003
27.3409
27.277
27.2085
27.1351
27.0567
26.973
26.8837
26.7886
26.6876
26.5804
26.4667
26.3464
26.2192
26.0851
25.9437
25.7949
25.6386
25.4746
27.9221
27.9202
27.9163
27.9102
27.9022
27.8919
27.8796
27.8651
27.8484
27.8294
27.808
27.7842
27.7578
27.7287
27.6969
27.6621
27.6242
27.583
27.5384
27.4901
27.4381
27.382
27.3216
27.2569
27.1876
27.1133
27.034
26.9494
26.8592
26.7633
26.6614
26.5534
26.4389
26.3179
26.19
26.0552
25.9132
25.7639
25.6071
25.4428
27.9142
27.9123
27.9083
27.9021
27.8938
27.8834
27.8708
27.856
27.839
27.8196
27.7979
27.7736
27.7468
27.7172
27.6848
27.6494
27.6109
27.5691
27.5238
27.4748
27.4221
27.3652
27.3041
27.2386
27.1684
27.0934
27.0132
26.9278
26.8369
26.7402
26.6375
26.5288
26.4136
26.2919
26.1634
26.028
25.8855
25.7358
25.5786
25.4139
27.907
27.9051
27.901
27.8947
27.8863
27.8757
27.8629
27.8478
27.8305
27.8108
27.7887
27.764
27.7368
27.7068
27.6739
27.638
27.5989
27.5565
27.5106
27.461
27.4076
27.3501
27.2883
27.2221
27.1512
27.0754
26.9946
26.9084
26.8168
26.7194
26.6161
26.5067
26.3909
26.2686
26.1395
26.0036
25.8607
25.7105
25.5529
25.388
27.9006
27.8986
27.8945
27.8881
27.8795
27.8689
27.8558
27.8405
27.823
27.803
27.7806
27.7556
27.7279
27.6976
27.6641
27.6278
27.5883
27.5453
27.4989
27.4487
27.3948
27.3367
27.2742
27.2075
27.1359
27.0595
26.9781
26.8913
26.799
26.701
26.5971
26.4871
26.3707
26.2479
26.1184
25.982
25.8387
25.6881
25.5303
25.3651
27.8951
27.893
27.8888
27.8824
27.8737
27.8629
27.8497
27.8342
27.8164
27.7962
27.7735
27.7482
27.7202
27.6895
27.6557
27.619
27.579
27.5356
27.4887
27.4381
27.3836
27.325
27.262
27.1947
27.1227
27.0457
26.9637
26.8763
26.7836
26.6851
26.5806
26.4701
26.3533
26.23
26.1001
25.9633
25.8196
25.6687
25.5106
25.3452
27.8903
27.8883
27.884
27.8775
27.8687
27.8578
27.8445
27.8288
27.8108
27.7904
27.7675
27.7419
27.7136
27.6826
27.6486
27.6115
27.5711
27.5274
27.4801
27.4291
27.3742
27.3151
27.2517
27.184
27.1115
27.0341
26.9516
26.8638
26.7705
26.6716
26.5667
26.4558
26.3386
26.2149
26.0846
25.9475
25.8035
25.6524
25.494
25.3285
27.8865
27.8844
27.8801
27.8736
27.8647
27.8536
27.8402
27.8244
27.8063
27.7857
27.7626
27.7368
27.7083
27.677
27.6428
27.6054
27.5648
27.5207
27.4731
27.4218
27.3665
27.3071
27.2434
27.1752
27.1024
27.0246
26.9418
26.8536
26.76
26.6607
26.5554
26.4442
26.3267
26.2027
26.0721
25.9347
25.7905
25.6392
25.4806
25.3149
27.8836
27.8815
27.8772
27.8706
27.8617
27.8505
27.837
27.8211
27.8029
27.7821
27.7588
27.7329
27.7043
27.6728
27.6383
27.6007
27.5599
27.5156
27.4678
27.4162
27.3607
27.301
27.2371
27.1686
27.0955
27.0174
26.9343
26.8459
26.7519
26.6524
26.5469
26.4353
26.3176
26.1934
26.0626
25.9251
25.7806
25.6291
25.4705
25.3046
27.8816
27.8795
27.8752
27.8685
27.8596
27.8484
27.8348
27.8189
27.8005
27.7797
27.7563
27.7303
27.7016
27.6699
27.6354
27.5976
27.5566
27.5122
27.4642
27.4125
27.3567
27.2969
27.2328
27.1641
27.0908
27.0126
26.9292
26.8407
26.7465
26.6468
26.5412
26.4294
26.3115
26.1871
26.0562
25.9185
25.7739
25.6224
25.4636
25.2976
27.8806
27.8785
27.8741
27.8675
27.8586
27.8473
27.8337
27.8177
27.7993
27.7785
27.755
27.729
27.7002
27.6684
27.6338
27.596
27.5549
27.5105
27.4624
27.4106
27.3547
27.2948
27.2306
27.1618
27.0884
27.0101
26.9267
26.838
26.7438
26.6439
26.5382
26.4264
26.3084
26.184
26.0529
25.9152
25.7705
25.6189
25.4602
25.2941
39.6284
39.1357
37.3064
35.3317
33.6373
32.3028
31.2447
30.4016
29.6886
29.0761
28.5274
28.0375
27.5731
27.1432
26.7057
26.2871
25.8482
25.4203
24.9742
24.5343
24.085
23.6365
23.1891
22.7353
22.2884
21.8283
21.3761
20.9055
20.4423
19.9535
19.4819
18.9627
18.4931
17.9214
17.4597
16.8331
16.3533
15.7117
15.1631
14.5503
13.9098
13.2971
12.5993
11.9569
11.1784
10.5793
9.64233
9.10228
8.09597
7.44755
6.55199
5.75092
4.98576
4.00577
3.55074
2.29466
2.00157
0.95336
0.444481
-0.0138167
-0.993769
-0.67668
-1.83963
-1.66533
-1.7193
-2.56108
-1.59922
-2.32646
-2.3809
-1.4787
-2.31046
-1.57079
-0.852349
-1.45799
-0.832653
-0.459088
-0.905796
-0.576032
-0.0855231
-0.0193761
37.6443
37.5774
36.6791
35.2274
33.678
32.3188
31.1884
30.3094
29.5749
28.9901
28.44
27.9853
27.5051
27.1037
26.6413
26.2497
25.7865
25.3819
24.9195
24.4922
24.0417
23.5881
23.1578
22.6784
22.264
21.765
21.3511
20.8406
20.4155
19.8893
19.4606
18.8957
18.477
17.8622
17.4343
16.8027
16.3021
15.7222
15.0927
14.5726
13.8434
13.3209
12.5351
11.997
11.1155
10.6079
9.63437
9.06393
8.18875
7.36663
6.69756
5.65643
5.13704
3.94098
3.60769
2.43856
1.90591
1.26794
0.235638
0.221766
-0.98414
-0.767094
-1.39186
-2.03998
-1.42012
-2.42017
-1.84988
-1.82129
-2.653
-1.53432
-1.79179
-2.04775
-0.76457
-1.09972
-1.20601
-0.357626
-0.631356
-0.765828
-0.139079
0.0422144
36.7702
36.8403
36.3004
35.2086
33.8175
32.4577
31.2606
30.3099
29.5319
28.9294
28.3873
27.9323
27.4697
27.0549
26.6123
26.1959
25.7584
25.3229
24.8909
24.4318
24.0101
23.5306
23.1189
22.6248
22.2142
21.7159
21.2921
20.7942
20.3533
19.8452
19.3959
18.8612
18.3983
17.8502
17.3355
16.8076
16.2031
15.712
15.027
14.5291
13.8229
13.2637
12.5307
11.9321
11.1648
10.4978
9.75357
8.9506
8.29238
7.35989
6.7227
5.76346
5.13565
4.21691
3.49981
2.79042
1.89725
1.43594
0.528971
0.214939
-0.415777
-0.906908
-1.06619
-1.69286
-1.55413
-1.75193
-2.0264
-1.69505
-2.0517
-1.90632
-1.4989
-1.63488
-1.16737
-0.8106
-0.977281
-0.695669
-0.456559
-0.564066
-0.321817
-0.00551278
36.073
36.1447
35.7289
34.8838
33.6864
32.4373
31.2522
30.2713
29.4584
28.8246
28.2881
27.8237
27.3905
26.9619
26.5532
26.1104
25.7081
25.2391
24.8401
24.3523
23.9526
23.4613
23.0509
22.568
22.1359
21.6669
21.2088
20.746
20.2702
19.7976
19.3093
18.8213
18.303
17.8189
17.2423
16.7701
16.1384
15.6498
14.9991
14.4436
13.8112
13.176
12.5307
11.8559
11.191
10.4312
9.79395
8.93901
8.29997
7.43603
6.69862
5.92125
5.14085
4.40568
3.54275
2.96863
2.08396
1.51125
0.871523
0.299319
-0.0972863
-0.757565
-0.942302
-1.27323
-1.53122
-1.49121
-1.78926
-1.73126
-1.69291
-1.86528
-1.4843
-1.34238
-1.25431
-0.842152
-0.759718
-0.785875
-0.502784
-0.41446
-0.363725
-0.0603889
35.4716
35.5141
35.1821
34.4993
33.5004
32.3732
31.2558
30.2648
29.4414
28.7633
28.2224
27.7364
27.32
26.8838
26.4956
26.047
25.656
25.1847
24.7835
24.3045
23.8875
23.4201
22.9798
22.5307
22.0642
21.6261
21.1416
20.6982
20.2067
19.7464
19.2436
18.7723
18.2379
17.766
17.1927
16.7054
16.1143
15.5741
14.9895
14.3738
13.7922
13.1276
12.5128
11.82
11.1816
10.4288
9.78333
8.9964
8.28012
7.52915
6.72539
6.02196
5.20983
4.52054
3.70094
3.05992
2.32613
1.64536
1.11021
0.493184
0.0763751
-0.448271
-0.777284
-0.993918
-1.31969
-1.37521
-1.49465
-1.61661
-1.51874
-1.5857
-1.4363
-1.19083
-1.09646
-0.87013
-0.66768
-0.674676
-0.550282
-0.358249
-0.289356
-0.0789506
34.9465
34.9521
34.6825
34.1056
33.2754
32.2661
31.2361
30.2588
29.4345
28.7237
28.164
27.6599
27.2409
26.8067
26.4215
25.9848
25.5875
25.1351
24.7138
24.2609
23.8146
23.3763
22.9084
22.4814
21.9997
21.5686
21.0846
20.6362
20.1517
19.6852
19.1869
18.7119
18.1859
17.6986
17.1548
16.6305
16.085
15.5056
14.9551
14.3269
13.75
13.1014
12.4769
11.803
11.1549
10.4445
9.75761
9.04092
8.28347
7.58212
6.78982
6.08099
5.31322
4.60411
3.86321
3.16143
2.51263
1.82758
1.281
0.716338
0.250195
-0.183561
-0.568908
-0.812042
-1.07032
-1.22262
-1.27942
-1.41997
-1.40107