/*--------------------------------*- C++ -*----------------------------------*\
| =========                 |                                                 |
| \\      /  F ield         | OpenFOAM: The Open Source CFD Toolbox           |
|  \\    /   O peration     | Version:  v2012                                 |
|   \\  /    A nd           | Website:  www.openfoam.com                      |
|    \\/     M anipulation  |                                                 |
\*---------------------------------------------------------------------------*/
FoamFile
{
    version     2.0;
    format      ascii;
    class       surfaceScalarField;
    location    "0.2";
    object      phi;
}
// * * * * * * * * * * * * * * * * * * * * * * * * * * * * * * * * * * * * * //

dimensions      [0 3 -1 0 0 0 0];
oriented        oriented;


internalField   nonuniform List<scalar> 
19000
(
0.000432987
1.24294e-08
0.000433058
-7.06948e-08
0.000433015
4.2856e-08
0.000433053
-3.8579e-08
0.000432981
7.23576e-08
0.000433024
-4.31142e-08
0.000432957
6.72069e-08
0.000433018
-6.13904e-08
0.000432952
6.66321e-08
0.00043302
-6.82897e-08
0.000432944
7.57378e-08
0.000433018
-7.35769e-08
0.000432931
8.66668e-08
0.00043301
-7.87177e-08
0.000432913
9.65208e-08
0.000432997
-8.39862e-08
0.000432892
1.05146e-07
0.00043298
-8.79545e-08
0.000432867
1.13001e-07
0.000432957
-8.9774e-08
0.000432837
1.19937e-07
0.000432926
-8.94985e-08
0.000432801
1.25802e-07
0.000432887
-8.69559e-08
0.000432757
1.30903e-07
0.000432838
-8.18314e-08
0.000432703
1.35415e-07
0.000432777
-7.42523e-08
0.000432636
1.41416e-07
0.0004327
-6.44287e-08
0.000432551
1.49717e-07
0.000432605
-5.43447e-08
0.000432442
1.63264e-07
0.000432488
-4.64159e-08
0.000432302
1.86523e-07
0.000432327
-2.50277e-08
0.000432055
2.71923e-07
0.000431875
1.80058e-07
0.000431
8.74741e-07
1.41738e-06
0.000429582
0.000436783
4.48286e-08
0.000436812
-9.97338e-08
0.000436791
6.3528e-08
0.000436819
-6.68276e-08
0.000436793
9.90109e-08
0.000436812
-6.21959e-08
0.000436781
9.74985e-08
0.0004368
-7.98386e-08
0.000436772
9.40883e-08
0.000436794
-8.96762e-08
0.000436767
1.02784e-07
0.000436785
-9.21969e-08
0.000436758
1.13813e-07
0.000436772
-9.29012e-08
0.000436746
1.22921e-07
0.000436755
-9.26634e-08
0.00043673
1.29464e-07
0.000436732
-8.98103e-08
0.000436711
1.34225e-07
0.000436704
-8.29386e-08
0.000436687
1.37501e-07
0.00043667
-7.25774e-08
0.000436656
1.39952e-07
0.000436628
-5.91378e-08
0.000436616
1.42631e-07
0.000436576
-4.19317e-08
0.000436566
1.45259e-07
0.000436512
-1.98483e-08
0.000436503
1.49925e-07
0.00043643
8.47817e-09
0.000436423
1.57426e-07
0.000436326
4.21004e-08
0.000436316
1.74058e-07
0.000436181
8.77022e-08
0.000436138
2.30372e-07
0.000435903
2.09401e-07
0.000435741
4.34443e-07
0.000435292
6.28519e-07
0.000434997
1.17002e-06
1.7973e-06
0.000434617
0.000440648
6.10304e-08
0.000440644
-9.57864e-08
0.000440641
6.66305e-08
0.000440647
-7.2627e-08
0.000440652
9.37705e-08
0.000440649
-5.86703e-08
0.00044065
9.68071e-08
0.000440636
-6.64301e-08
0.00044064
9.0682e-08
0.000440623
-7.26497e-08
0.000440632
9.31412e-08
0.00044061
-6.96327e-08
0.000440624
9.91582e-08
0.000440594
-6.27254e-08
0.000440614
1.03454e-07
0.000440574
-5.33962e-08
0.000440599
1.04395e-07
0.00044055
-4.05135e-08
0.000440581
1.03061e-07
0.000440521
-2.30471e-08
0.000440558
1.01101e-07
0.000440488
-2.45973e-09
0.000440527
1.00448e-07
0.000440447
2.0481e-08
0.000440487
1.02854e-07
0.000440399
4.65993e-08
0.000440436
1.07633e-07
0.000440338
7.83713e-08
0.000440371
1.17321e-07
0.000440261
1.18017e-07
0.000440285
1.33718e-07
0.000440158
1.69156e-07
0.000440162
1.69668e-07
0.000439997
2.53245e-07
0.000439957
2.70426e-07
0.000439711
4.5506e-07
0.000439589
5.56919e-07
0.000439246
9.71235e-07
0.000439127
1.28915e-06
2.10734e-06
0.000438817
0.000444548
6.05712e-08
0.000444531
-7.79048e-08
0.000444537
6.0592e-08
0.000444527
-6.33054e-08
0.000444543
7.84209e-08
0.000444531
-4.73672e-08
0.000444544
8.46414e-08
0.000444523
-4.60145e-08
0.000444533
8.07021e-08
0.000444509
-4.84784e-08
0.000444521
8.0686e-08
0.000444495
-4.32902e-08
0.00044451
8.43443e-08
0.00044448
-3.27465e-08
0.000444497
8.67688e-08
0.000444461
-1.76901e-08
0.00044448
8.49886e-08
0.000444437
2.72098e-09
0.00044446
8.00574e-08
0.000444408
2.84788e-08
0.000444435
7.4587e-08
0.000444375
5.80376e-08
0.000444404
7.14322e-08
0.000444334
9.0337e-08
0.000444363
7.30955e-08
0.000444285
1.25501e-07
0.000444311
8.06972e-08
0.000444224
1.65622e-07
0.000444244
9.79676e-08
0.000444148
2.13844e-07
0.000444151
1.29972e-07
0.000444042
2.78313e-07
0.000444017
1.95237e-07
0.000443877
3.92794e-07
0.000443802
3.45147e-07
0.000443618
6.39551e-07
0.000443471
7.03667e-07
0.000443264
1.17853e-06
0.00044309
1.46306e-06
2.2476e-06
0.00044295
0.000448474
5.2536e-08
0.000448453
-5.76702e-08
0.000448464
4.962e-08
0.000448447
-4.57536e-08
0.000448465
6.07236e-08
0.000448448
-3.09439e-08
0.000448465
6.74159e-08
0.000448444
-2.43356e-08
0.000448457
6.69918e-08
0.00044843
-2.15063e-08
0.000448445
6.64273e-08
0.000448416
-1.42302e-08
0.000448431
6.84801e-08
0.0004484
-1.04624e-09
0.000448417
6.9463e-08
0.000448381
1.84695e-08
0.0004484
6.61428e-08
0.000448358
4.49689e-08
0.000448378
5.95334e-08
0.000448329
7.71857e-08
0.000448351
5.28759e-08
0.000448296
1.13164e-07
0.000448317
5.00947e-08
0.000448256
1.51749e-07
0.000448275
5.44147e-08
0.000448208
1.92272e-07
0.00044822
6.88543e-08
0.000448148
2.36803e-07
0.000448148
9.83715e-08
0.000448072
2.90174e-07
0.00044805
1.51322e-07
0.000447965
3.64106e-07
0.000447909
2.51267e-07
0.000447804
4.96985e-07
0.000447697
4.52499e-07
0.000447569
7.67048e-07
0.000447405
8.6793e-07
0.000447276
1.30725e-06
0.000447096
1.64377e-06
2.29118e-06
0.000447052
0.000452428
4.27039e-08
0.000452415
-4.51163e-08
0.00045242
4.43803e-08
0.000452405
-3.05658e-08
0.000452416
4.96268e-08
0.000452401
-1.61597e-08
0.000452416
5.30506e-08
0.000452397
-5.34577e-09
0.000452411
5.27509e-08
0.000452385
4.88012e-09
0.0004524
5.0681e-08
0.000452368
1.77456e-08
0.000452388
4.89036e-08
0.000452351
3.64543e-08
0.000452374
4.61827e-08
0.000452331
6.13217e-08
0.000452356
4.10067e-08
0.000452309
9.24642e-08
0.000452333
3.54427e-08
0.000452282
1.27643e-07
0.000452303
3.24833e-08
0.000452251
1.64458e-07
0.000452265
3.66643e-08
0.000452215
2.01819e-07
0.000452217
5.17751e-08
0.00045217
2.39264e-07
0.000452157
8.20664e-08
0.000452114
2.7944e-07
0.00045208
1.3308e-07
0.00045204
3.29982e-07
0.000451977
2.1457e-07
0.000451934
4.06921e-07
0.000451833
3.52276e-07
0.000451779
5.50505e-07
0.000451631
6.00414e-07
0.000451564
8.34631e-07
0.00045138
1.05148e-06
0.000451311
1.37657e-06
0.000451139
1.81605e-06
2.28555e-06
0.000451144
0.000456417
3.06824e-08
0.000456403
-3.13073e-08
0.000456413
3.39758e-08
0.000456394
-1.10573e-08
0.000456407
3.61106e-08
0.000456386
4.98216e-09
0.000456405
3.42837e-08
0.000456381
1.91436e-08
0.000456401
3.19844e-08
0.00045637
3.59681e-08
0.000456392
2.93355e-08
0.000456355
5.4286e-08
0.000456378
2.58499e-08
0.000456338
7.67818e-08
0.000456362
2.21632e-08
0.00045632
1.03549e-07
0.000456342
1.89385e-08
0.0004563
1.34421e-07
0.000456315
1.9816e-08
0.000456276
1.66592e-07
0.000456282
2.70186e-08
0.000456248
1.97779e-07
0.00045624
4.48543e-08
0.000456215
2.2745e-07
0.00045619
7.69214e-08
0.000456172
2.56578e-07
0.000456127
1.27373e-07
0.000456117
2.89643e-07
0.000456048
2.01626e-07
0.000456041
3.37275e-07
0.000455945
3.10165e-07
0.000455933
4.18972e-07
0.000455806
4.78981e-07
0.000455781
5.75597e-07
0.000455623
7.58679e-07
0.00045558
8.77784e-07
0.000455409
1.22198e-06
0.000455361
1.42498e-06
0.000455223
1.95365e-06
2.28227e-06
0.000455227
0.000460443
1.48652e-08
0.000460421
-9.4649e-09
0.000460442
1.29065e-08
0.000460415
1.60099e-08
0.000460437
1.40995e-08
0.000460406
3.55732e-08
0.000460431
9.34296e-09
0.0004604
5.08021e-08
0.000460426
5.54349e-09
0.000460392
6.98539e-08
0.000460415
6.18189e-09
0.00046038
8.94875e-08
0.000460399
6.84835e-09
0.000460366
1.10015e-07
0.000460379
9.02157e-09
0.000460351
1.31897e-07
0.000460355
1.46873e-08
0.000460334
1.55747e-07
0.000460326
2.7674e-08
0.000460313
1.79793e-07
0.00046029
4.92903e-08
0.000460286
2.02273e-07
0.000460248
8.28149e-08
0.000460252
2.23663e-07
0.000460197
1.31218e-07
0.000460207
2.46601e-07
0.000460136
1.9827e-07
0.000460148
2.77797e-07
0.000460061
2.89131e-07
0.000460068
3.30257e-07
0.000459963
4.14839e-07
0.000459956
4.25761e-07
0.000459835
6.00695e-07
0.000459805
6.0475e-07
0.000459671
8.92707e-07
0.000459617
9.31949e-07
0.00045949
1.34967e-06
0.000459428
1.48634e-06
0.000459344
2.0376e-06
2.31028e-06
0.000459316
0.000464503
-3.52149e-09
0.000464472
2.1516e-08
0.000464501
-1.64759e-08
0.000464473
4.4482e-08
0.000464498
-1.11893e-08
0.000464467
6.66219e-08
0.000464489
-1.23815e-08
0.000464461
7.88077e-08
0.00046448
-1.37092e-08
0.000464456
9.34893e-08
0.000464468
-5.05103e-09
0.000464448
1.0892e-07
0.000464449
6.05217e-09
0.000464436
1.22534e-07
0.000464427
1.89043e-08
0.000464423
1.35755e-07
0.000464401
3.63767e-08
0.000464406
1.51002e-07
0.000464372
6.15671e-08
0.000464384
1.67799e-07
0.000464338
9.54174e-08
0.000464355
1.84978e-07
0.000464298
1.40141e-07
0.000464317
2.03897e-07
0.000464251
1.98049e-07
0.000464269
2.28566e-07
0.000464194
2.72924e-07
0.000464204
2.67326e-07
0.000464123
3.70341e-07
0.000464119
3.34275e-07
0.000464032
5.02337e-07
0.000464006
4.51881e-07
0.000463913
6.93517e-07
0.000463859
6.59018e-07
0.000463766
9.84856e-07
0.000463686
1.01206e-06
0.000463609
1.42723e-06
0.000463524
1.57075e-06
0.000463491
2.07085e-06
2.36709e-06
0.000463434
0.000468595
-2.03272e-08
0.000468563
5.32112e-08
0.000468588
-4.15995e-08
0.00046857
6.25948e-08
0.000468588
-2.97545e-08
0.00046857
8.53467e-08
0.000468576
-1.87177e-08
0.000468564
9.06878e-08
0.000468564
-1.31152e-08
0.000468561
9.57021e-08
0.000468551
5.35965e-09
0.000468555
1.04659e-07
0.000468533
2.85388e-08
0.000468543
1.11875e-07
0.000468511
5.09147e-08
0.000468528
1.18886e-07
0.000468488
7.70125e-08
0.000468509
1.29739e-07
0.000468461
1.09242e-07
0.000468484
1.45127e-07
0.000468431
1.48548e-07
0.000468451
1.64479e-07
0.000468395
1.96524e-07
0.000468409
1.89334e-07
0.000468352
2.55554e-07
0.000468357
2.23979e-07
0.000468299
3.30408e-07
0.000468289
2.77244e-07
0.000468232
4.27936e-07
0.000468202
3.6333e-07
0.000468144
5.61047e-07
0.000468091
5.04811e-07
0.000468031
7.52941e-07
0.000467952
7.38127e-07
0.000467897
1.04013e-06
0.000467798
1.11074e-06
0.000467757
1.46828e-06
0.000467662
1.66654e-06
0.000467657
2.07521e-06
2.4303e-06
0.000467594
0.000472717
-2.99137e-08
0.000472698
7.2408e-08
0.000472705
-4.85491e-08
0.000472705
6.2087e-08
0.000472708
-3.26016e-08
0.000472711
8.21356e-08
0.000472697
-4.13333e-09
0.000472705
8.2585e-08
0.000472682
9.14326e-09
0.0004727
7.77382e-08
0.000472672
3.38245e-08
0.000472694
8.28723e-08
0.000472657
6.51448e-08
0.00047268
8.90854e-08
0.000472639
9.19401e-08
0.000472662
9.5973e-08
0.000472619
1.19929e-07
0.000472639
1.09564e-07
0.000472596
1.52032e-07
0.000472611
1.30627e-07
0.000472569
1.89857e-07
0.000472575
1.58581e-07
0.000472537
2.35265e-07
0.000472531
1.94413e-07
0.000472496
2.91373e-07
0.000472478
2.4198e-07
0.000472444
3.64251e-07
0.000472411
3.10376e-07
0.000472377
4.61677e-07
0.000472326
4.1409e-07
0.000472291
5.9641e-07
0.00047222
5.75631e-07
0.000472183
7.89928e-07
0.000472093
8.28104e-07
0.000472058
1.07553e-06
0.000471958
1.21071e-06
0.000471932
1.49382e-06
0.000471844
1.75512e-06
0.000471844
2.07479e-06
2.47802e-06
0.000471796
0.000476872
-2.91838e-08
0.000476875
7.00479e-08
0.000476858
-3.22233e-08
0.000476875
4.5023e-08
0.000476861
-1.84618e-08
0.000476884
5.9159e-08
0.000476856
2.4483e-08
0.000476876
6.17486e-08
0.000476842
4.35483e-08
0.000476868
5.18871e-08
0.000476834
6.74395e-08
0.000476859
5.77363e-08
0.000476824
1.00266e-07
0.000476844
6.98404e-08
0.000476809
1.2603e-07
0.000476823
8.27308e-08
0.000476792
1.50103e-07
0.000476798
1.0417e-07
0.000476773
1.77382e-07
0.000476768
1.34754e-07
0.000476747
2.10858e-07
0.000476733
1.7307e-07
0.000476715
2.53123e-07
0.00047669
2.1927e-07
0.000476674
3.0785e-07
0.000476638
2.77248e-07
0.000476621
3.81695e-07
0.000476574
3.5698e-07
0.000476554
4.82322e-07
0.000476494
4.73803e-07
0.000476469
6.21469e-07
0.000476395
6.49729e-07
0.000476366
8.19164e-07
0.00047628
9.13939e-07
0.000476249
1.10663e-06
0.000476161
1.29795e-06
0.000476136
1.51961e-06
0.000476067
1.82384e-06
0.000476058
2.08353e-06
2.50126e-06
0.000476035
0.000481066
-1.98119e-08
0.000481087
4.88e-08
0.000481057
-1.47012e-09
0.000481079
2.28889e-08
0.000481055
5.76161e-09
0.000481085
2.84215e-08
0.000481057
5.30155e-08
0.000481078
4.07377e-08
0.000481046
7.57646e-08
0.000481064
3.32399e-08
0.000481039
9.29041e-08
0.000481054
4.24607e-08
0.000481032
1.2178e-07
0.000481038
6.47167e-08
0.00048102
1.43886e-07
0.000481016
8.68012e-08
0.000481004
1.62194e-07
0.000480991
1.16572e-07
0.000480984
1.84538e-07
0.000480963
1.55681e-07
0.000480958
2.15588e-07
0.00048093
2.0174e-07
0.000480925
2.58086e-07
0.00048089
2.54166e-07
0.000480882
3.15738e-07
0.000480841
3.17863e-07
0.000480828
3.94657e-07
0.000480781
4.04601e-07
0.000480762
5.01496e-07
0.000480705
5.30722e-07
0.000480679
6.46884e-07
0.000480612
7.16545e-07
0.000480581
8.50317e-07
0.000480508
9.86946e-07
0.000480473
1.14161e-06
0.000480405
1.36643e-06
0.000480372
1.55204e-06
0.000480326
1.86994e-06
0.000480306
2.10334e-06
2.50329e-06
0.000480304
0.000485302
-6.68393e-09
0.00048533
2.04179e-08
0.000485301
2.75542e-08
0.000485316
7.88163e-09
0.000485292
2.98853e-08
0.000485316
4.40306e-09
0.000485299
7.02809e-08
0.000485311
2.83496e-08
0.000485291
9.58532e-08
0.000485294
3.00823e-08
0.000485283
1.04419e-07
0.000485283
4.25526e-08
0.000485278
1.26588e-07
0.000485268
7.46229e-08
0.000485266
1.46144e-07
0.000485247
1.05756e-07
0.000485248
1.60712e-07
0.000485224
1.4095e-07
0.000485227
1.81164e-07
0.000485199
1.84382e-07
0.0004852
2.14258e-07
0.000485168
2.33474e-07
0.000485165
2.61609e-07
0.000485131
2.87755e-07
0.000485121
3.25838e-07
0.000485085
3.53873e-07
0.000485068
4.11686e-07
0.000485027
4.45733e-07
0.000485003
5.25097e-07
0.000484954
5.79602e-07
0.000484925
6.7663e-07
0.000484868
7.72671e-07
0.000484833
8.86025e-07
0.000484774
1.04546e-06
0.000484734
1.18183e-06
0.000484684
1.41678e-06
0.000484645
1.59047e-06
0.000484618
1.8976e-06
0.000484592
2.12908e-06
2.49285e-06
0.000484602
0.00048958
5.06285e-09
0.000489604
-3.43841e-09
0.000489587
4.49149e-08
0.000489591
3.47649e-09
0.000489574
4.72617e-08
0.000489582
-3.78403e-09
0.000489579
7.26807e-08
0.000489581
2.66239e-08
0.000489575
1.01559e-07
0.000489564
4.1254e-08
0.000489564
1.04594e-07
0.000489551
5.54802e-08
0.000489558
1.1972e-07
0.000489539
9.35725e-08
0.000489546
1.39723e-07
0.00048952
1.3134e-07
0.000489526
1.54671e-07
0.000489499
1.68163e-07
0.000489503
1.77089e-07
0.000489476
2.11315e-07
0.000489474
2.16138e-07
0.000489448
2.59648e-07
0.000489438
2.71316e-07
0.000489412
3.13866e-07
0.000489395
3.42857e-07
0.000489367
3.82194e-07
0.000489344
4.34513e-07
0.00048931
4.79592e-07
0.000489282
5.53014e-07
0.000489241
6.20838e-07
0.000489208
7.09872e-07
0.000489161
8.19282e-07
0.000489122
9.2503e-07
0.000489076
1.09161e-06
0.000489033
1.22512e-06
0.000488996
1.4531e-06
0.000488956
1.63078e-06
0.00048894
1.91383e-06
0.000488915
2.15376e-06
2.47855e-06
0.000488929
0.0004939
1.16704e-08
0.000493911
-1.45142e-08
0.000493908
4.75699e-08
0.000493904
7.34038e-09
0.000493896
5.55933e-08
0.000493889
3.22945e-09
0.000493896
6.59225e-08
0.000493891
3.19404e-08
0.000493895
9.6913e-08
0.000493877
5.92643e-08
0.000493882
1.00178e-07
0.000493862
7.48051e-08
0.000493873
1.09347e-07
0.000493852
1.1393e-07
0.00049386
1.32133e-07
0.000493836
1.55419e-07
0.000493839
1.51783e-07
0.000493816
1.91042e-07
0.000493814
1.79304e-07
0.000493794
2.30833e-07
0.000493785
2.25697e-07
0.000493767
2.7727e-07
0.00049375
2.88622e-07
0.000493731
3.32598e-07
0.000493708
3.65576e-07
0.000493685
4.05044e-07
0.000493659
4.60443e-07
0.00049363
5.09023e-07
0.000493601
5.82389e-07
0.000493564
6.57023e-07
0.00049353
7.44292e-07
0.00049349
8.58778e-07
0.00049345
9.65219e-07
0.000493413
1.12847e-06
0.00049337
1.26842e-06
0.000493343
1.48029e-06
0.000493305
1.66843e-06
0.000493294
1.92495e-06
0.000493276
2.17229e-06
2.46559e-06
0.000493289
0.000498257
1.34054e-08
0.000498256
-1.35032e-08
0.000498264
4.02196e-08
0.000498256
1.46078e-08
0.000498256
5.64017e-08
0.000498241
1.81367e-08
0.000498249
5.81006e-08
0.00049824
4.04557e-08
0.00049825
8.72089e-08
0.000498232
7.6874e-08
0.000498236
9.63385e-08
0.000498216
9.47484e-08
0.000498223
1.02135e-07
0.000498207
1.30515e-07
0.00049821
1.28312e-07
0.000498193
1.73084e-07
0.000498189
1.5576e-07
0.000498173
2.06601e-07
0.000498163
1.89791e-07
0.000498151
2.42507e-07
0.000498135
2.42138e-07
0.000498123
2.88449e-07
0.000498102
3.10324e-07
0.000498087
3.47629e-07
0.000498062
3.90104e-07
0.000498041
4.26111e-07
0.000498015
4.86307e-07
0.000497988
5.36657e-07
0.000497959
6.11171e-07
0.000497926
6.89794e-07
0.000497892
7.78451e-07
0.000497858
8.92924e-07
0.000497818
1.00469e-06
0.000497788
1.15924e-06
0.000497747
1.30862e-06
0.000497725
1.50298e-06
0.000497693
1.69988e-06
0.000497683
1.9351e-06
0.000497673
2.18274e-06
2.45526e-06
0.000497683
0.000502651
1.20799e-08
0.000502644
-5.93854e-09
0.000502653
3.07391e-08
0.000502647
2.05311e-08
0.00050265
5.34046e-08
0.000502635
3.32581e-08
0.000502639
5.42823e-08
0.00050263
4.97268e-08
0.00050264
7.73929e-08
0.000502627
8.99654e-08
0.000502628
9.47932e-08
0.000502611
1.11978e-07
0.000502612
1.01067e-07
0.000502601
1.41776e-07
0.000502599
1.30013e-07
0.000502589
1.83107e-07
0.000502578
1.664e-07
0.000502569
2.15534e-07
0.000502553
2.06555e-07
0.000502546
2.4942e-07
0.000502526
2.61792e-07
0.000502517
2.97355e-07
0.000502495
3.32004e-07
0.00050248
3.62783e-07
0.000502457
4.13015e-07
0.000502436
4.47884e-07
0.000502411
5.10482e-07
0.000502385
5.63362e-07
0.000502357
6.38998e-07
0.000502327
7.19334e-07
0.000502294
8.11958e-07
0.000502264
9.22754e-07
0.000502227
1.04198e-06
0.000502199
1.18652e-06
0.000502165
1.34339e-06
0.000502143
1.52434e-06
0.00050212
1.72342e-06
0.000502109
1.94587e-06
0.000502106
2.18566e-06
2.44648e-06
0.000502115
0.000507082
9.94105e-09
0.000507074
2.2231e-09
0.00050708
2.45591e-08
0.000507077
2.37578e-08
0.000507081
4.93173e-08
0.00050707
4.43953e-08
0.000507069
5.48747e-08
0.00050706
5.86767e-08
0.000507066
7.10515e-08
0.000507059
9.74482e-08
0.000507058
9.55204e-08
0.000507046
1.24657e-07
0.00050704
1.06408e-07
0.000507033
1.48488e-07
0.000507027
1.36893e-07
0.000507023
1.8698e-07
0.000507008
1.80945e-07
0.000507003
2.20649e-07
0.000506984
2.25715e-07
0.000506978
2.55661e-07
0.000506959
2.80857e-07
0.000506949
3.07418e-07
0.00050693
3.50908e-07
0.000506913
3.79676e-07
0.000506893
4.33211e-07
0.00050687
4.7047e-07
0.000506847
5.33212e-07
0.000506822
5.88731e-07
0.000506795
6.66124e-07
0.000506768
7.45864e-07
0.000506736
8.44017e-07
0.000506709
9.49701e-07
0.000506676
1.07551e-06
0.00050665
1.2123e-06
0.000506622
1.37169e-06
0.000506601
1.5454e-06
0.000506584
1.73974e-06
0.000506574
1.9563e-06
0.000506576
2.18352e-06
2.43693e-06
0.000506585
0.00051155
8.51631e-09
0.000511545
7.4786e-09
0.000511546
2.30474e-08
0.000511544
2.54271e-08
0.000511548
4.54759e-08
0.000511541
5.13222e-08
0.000511539
5.72653e-08
0.00051153
6.73635e-08
0.000511532
6.90992e-08
0.000511529
1.0096e-07
0.000511526
9.78279e-08
0.000511519
1.32228e-07
0.000511509
1.16575e-07
0.000511505
1.52311e-07
0.000511494
1.47524e-07
0.000511494
1.87564e-07
0.000511479
1.95957e-07
0.000511474
2.25121e-07
0.000511456
2.435e-07
0.000511448
2.64238e-07
0.000511432
2.97083e-07
0.000511419
3.20107e-07
0.000511403
3.66565e-07
0.000511385
3.97705e-07
0.000511367
4.51594e-07
0.000511345
4.92442e-07
0.000511322
5.5561e-07
0.000511299
6.12045e-07
0.000511273
6.92585e-07
0.000511248
7.70081e-07
0.000511219
8.73339e-07
0.000511193
9.75401e-07
0.000511165
1.10389e-06
0.00051114
1.23778e-06
0.000511118
1.39365e-06
0.000511097
1.56573e-06
0.000511086
1.75076e-06
0.000511078
1.96446e-06
0.000511083
2.179e-06
2.4245e-06
0.000511095
0.000516057
8.04398e-09
0.000516055
9.70846e-09
0.000516053
2.44066e-08
0.000516052
2.72325e-08
0.000516054
4.27253e-08
0.000516051
5.51227e-08
0.000516048
5.95658e-08
0.00051604
7.52546e-08
0.000516038
7.10643e-08
0.000516037
1.02621e-07
0.000516033
1.01328e-07
0.00051603
1.35481e-07
0.000516018
1.28774e-07
0.000516015
1.55302e-07
0.000516003
1.59714e-07
0.000516002
1.88144e-07
0.000515989
2.087e-07
0.000515983
2.3108e-07
0.000515969
2.57849e-07
0.000515957
2.75836e-07
0.000515944
3.10401e-07
0.000515929
3.34852e-07
0.000515916
3.8017e-07
0.000515898
4.1536e-07
0.00051588
4.69354e-07
0.00051586
5.12652e-07
0.000515838
5.78008e-07
0.000515816
6.33476e-07
0.000515791
7.17694e-07
0.000515768
7.93061e-07
0.000515743
8.98939e-07
0.000515717
1.00061e-06
0.000515694
1.12707e-06
0.000515669
1.26257e-06
0.000515652
1.41069e-06
0.000515634
1.58397e-06
0.000515626
1.75858e-06
0.000515622
1.96897e-06
0.000515627
2.17351e-06
2.40869e-06
0.000515643
0.000520604
8.02342e-09
0.000520604
1.05556e-08
0.000520602
2.58668e-08
0.000520599
3.0391e-08
0.0005206
4.12568e-08
0.000520598
5.72958e-08
0.000520596
6.13563e-08
0.00052059
8.11619e-08
0.000520585
7.63334e-08
0.000520584
1.0351e-07
0.000520579
1.06255e-07
0.000520579
1.3591e-07
0.000520567
1.40386e-07
0.000520564
1.59046e-07
0.000520552
1.71265e-07
0.000520549
1.91275e-07
0.00052054
2.17933e-07
0.000520532
2.39103e-07
0.000520521
2.6871e-07
0.000520507
2.89229e-07
0.000520496
3.22247e-07
0.000520481
3.49906e-07
0.000520467
3.93496e-07
0.000520451
4.31307e-07
0.000520434
4.87046e-07
0.000520415
5.30965e-07
0.000520394
5.99642e-07
0.000520373
6.54064e-07
0.00052035
7.40269e-07
0.000520328
8.15868e-07
0.000520306
9.20411e-07
0.000520282
1.02517e-06
0.000520263
1.14611e-06
0.00052024
1.28519e-06
0.000520226
1.42498e-06
0.000520211
1.59844e-06
0.000520205
1.76501e-06
0.000520205
1.96913e-06
0.000520211
2.1674e-06
2.39014e-06
0.000520229
0.000525192
7.82851e-09
0.000525191
1.15983e-08
0.000525191
2.60533e-08
0.000525187
3.45459e-08
0.000525187
4.1115e-08
0.000525186
5.89552e-08
0.000525184
6.30698e-08
0.00052518
8.45302e-08
0.000525173
8.364e-08
0.000525172
1.04415e-07
0.000525166
1.12338e-07
0.000525167
1.35508e-07
0.000525157
1.497e-07
0.000525152
1.64279e-07
0.000525142
1.80856e-07
0.000525136
1.97706e-07
0.00052513
2.24297e-07
0.00052512
2.48404e-07
0.000525112
2.77332e-07
0.000525098
3.02521e-07
0.000525087
3.34076e-07
0.000525073
3.63806e-07
0.000525059
4.076e-07
0.000525045
4.45256e-07
0.000525027
5.04367e-07
0.00052501
5.47923e-07
0.00052499
6.19474e-07
0.00052497
6.74583e-07
0.00052495
7.59767e-07
0.000524928
8.38658e-07
0.00052491
9.38317e-07
0.000524887
1.04821e-06
0.00052487
1.16242e-06
0.000524851
1.30438e-06
0.000524838
1.43793e-06
0.000524828
1.60847e-06
0.000524823
1.77075e-06
0.000524826
1.96523e-06
0.000524833
2.16037e-06
2.36965e-06
0.000524854
0.000529821
7.14486e-09
0.000529819
1.35047e-08
0.00052982
2.51429e-08
0.000529816
3.83663e-08
0.000529815
4.25409e-08
0.000529814
6.02296e-08
0.000529811
6.54987e-08
0.00052981
8.57148e-08
0.000529802
9.12469e-08
0.000529801
1.06279e-07
0.000529794
1.1851e-07
0.000529794
1.36327e-07
0.000529787
1.55926e-07
0.000529781
1.71014e-07
0.000529773
1.88318e-07
0.000529764
2.06471e-07
0.000529759
2.29633e-07
0.00052975
2.57527e-07
0.000529742
2.85382e-07
0.00052973
3.1416e-07
0.000529718
3.46561e-07
0.000529705
3.76158e-07
0.000529691
4.22209e-07
0.000529678
4.58097e-07
0.000529662
5.20313e-07
0.000529646
5.64394e-07
0.000529628
6.36707e-07
0.000529608
6.95104e-07
0.000529591
7.76579e-07
0.000529569
8.60553e-07
0.000529553
9.5404e-07
0.000529533
1.06847e-06
0.000529518
1.17732e-06
0.000529503
1.31944e-06
0.000529491
1.44997e-06
0.000529485
1.6145e-06
0.000529481
1.77533e-06
0.000529487
1.95848e-06
0.000529496
2.15158e-06
2.34814e-06
0.000529518
0.000534491
6.14214e-09
0.000534488
1.59274e-08
0.000534489
2.41773e-08
0.000534487
4.06218e-08
0.000534484
4.5447e-08
0.000534483
6.10732e-08
0.00053448
6.8922e-08
0.00053448
8.58073e-08
0.000534473
9.76456e-08
0.00053447
1.09584e-07
0.000534465
1.2383e-07
0.000534461
1.39502e-07
0.000534458
1.59426e-07
0.00053445
1.78533e-07
0.000534444
1.94382e-07
0.000534435
2.15855e-07
0.000534429
2.35669e-07
0.000534421
2.65425e-07
0.000534412
2.93997e-07
0.000534403
3.23603e-07
0.00053439
3.59461e-07
0.000534379
3.87362e-07
0.000534365
4.36378e-07
0.000534352
4.70934e-07
0.000534338
5.34111e-07
0.000534322
5.80877e-07
0.000534307
6.51173e-07
0.000534287
7.15109e-07
0.000534272
7.9147e-07
0.000534252
8.80528e-07
0.000534238
9.68761e-07
0.000534221
1.08513e-06
0.000534207
1.19148e-06
0.000534196
1.33036e-06
0.000534185
1.46092e-06
0.000534182
1.61732e-06
0.000534179
1.77804e-06
0.000534188
1.95005e-06
0.000534199
2.14035e-06
2.32634e-06
0.000534221
0.000539201
5.28309e-09
0.000539199
1.78928e-08
0.000539199
2.42944e-08
0.000539198
4.09991e-08
0.000539195
4.90786e-08
0.000539194
6.1884e-08
0.00053919
7.26924e-08
0.00053919
8.62538e-08
0.000539185
1.01922e-07
0.000539181
1.14237e-07
0.000539177
1.28032e-07
0.000539171
1.4469e-07
0.000539169
1.61685e-07
0.000539162
1.85543e-07
0.000539156
2.00243e-07
0.000539148
2.24346e-07
0.00053914
2.43213e-07
0.000539134
2.71958e-07
0.000539124
3.03243e-07
0.000539117
3.31484e-07
0.000539104
3.71821e-07
0.000539093
3.98239e-07
0.00053908
4.49171e-07
0.000539067
4.84327e-07
0.000539055
5.45813e-07
0.000539039
5.97058e-07
0.000539027
6.63534e-07
0.000539008
7.33595e-07
0.000538995
8.0529e-07
0.000538977
8.97866e-07
0.000538963
9.82955e-07
0.00053895
1.09829e-06
0.000538937
1.20467e-06
0.000538929
1.33785e-06
0.00053892
1.47013e-06
0.00053892
1.61776e-06
0.000538919
1.7784e-06
0.000538929
1.94055e-06
0.000538942
2.12663e-06
2.30438e-06
0.000538964
0.000543952
4.94863e-09
0.000543951
1.87219e-08
0.00054395
2.58583e-08
0.00054395
4.02017e-08
0.000543947
5.23215e-08
0.000543946
6.32247e-08
0.000543943
7.59092e-08
0.000543941
8.81121e-08
0.000543939
1.04032e-07
0.000543933
1.19597e-07
0.00054393
1.31456e-07
0.000543924
1.50716e-07
0.000543921
1.64345e-07
0.000543916
1.91026e-07
0.000543909
2.06703e-07
0.000543902
2.31179e-07
0.000543893
2.52118e-07
0.000543888
2.77646e-07
0.000543878
3.1254e-07
0.000543871
3.38881e-07
0.00054386
3.82662e-07
0.000543849
4.09465e-07
0.000543838
4.60054e-07
0.000543824
4.98216e-07
0.000543814
5.55954e-07
0.000543799
6.1232e-07
0.000543788
6.74726e-07
0.000543772
7.49621e-07
0.000543758
8.18667e-07
0.000543744
9.12182e-07
0.00054373
9.96673e-07
0.00054372
1.10841e-06
0.000543708
1.21632e-06
0.000543703
1.34286e-06
0.000543697
1.47682e-06
0.000543698
1.6166e-06
0.0005437
1.77595e-06
0.000543711
1.93034e-06
0.000543727
2.11057e-06
2.28208e-06
0.000543749
0.000548745
5.18207e-09
0.000548745
1.84945e-08
0.000548743
2.82017e-08
0.000548744
3.95568e-08
0.000548742
5.43426e-08
0.000548739
6.53361e-08
0.000548737
7.81442e-08
0.000548734
9.14052e-08
0.000548733
1.04909e-07
0.000548728
1.24644e-07
0.000548725
1.34792e-07
0.000548719
1.56338e-07
0.000548715
1.68337e-07
0.000548711
1.94843e-07
0.000548704
2.1369e-07
0.000548699
2.36592e-07
0.000548689
2.61475e-07
0.000548684
2.83293e-07
0.000548675
3.21141e-07
0.000548668
3.46566e-07
0.000548659
3.91639e-07
0.000548647
4.21045e-07
0.000548638
4.69226e-07
0.000548624
5.11981e-07
0.000548615
5.65224e-07
0.000548601
6.26185e-07
0.00054859
6.8533e-07
0.000548577
7.6291e-07
0.000548564
8.316e-07
0.000548553
9.23631e-07
0.00054854
1.00964e-06
0.000548532
1.11604e-06
0.000548522
1.22608e-06
0.000548519
1.34598e-06
0.000548515
1.48067e-06
0.000548518
1.61427e-06
0.000548523
1.77054e-06
0.000548534
1.91958e-06
0.000548552
2.09233e-06
2.25936e-06
0.000548575
0.000553581
5.6978e-09
0.000553581
1.78956e-08
0.000553579
3.02582e-08
0.000553579
4.01089e-08
0.000553578
5.4988e-08
0.000553575
6.80228e-08
0.000553574
7.95688e-08
0.00055357
9.5351e-08
0.000553569
1.05867e-07
0.000553565
1.2847e-07
0.000553561
1.38629e-07
0.000553557
1.60758e-07
0.000553552
1.73754e-07
0.000553549
1.97565e-07
0.000553542
2.20562e-07
0.000553537
2.41365e-07
0.000553528
2.70136e-07
0.000553522
2.89644e-07
0.000553515
3.28483e-07
0.000553507
3.54821e-07
0.000553499
3.98967e-07
0.000553488
4.32468e-07
0.00055348
4.77359e-07
0.000553467
5.24718e-07
0.000553458
5.74277e-07
0.000553446
6.3827e-07
0.000553435
6.95652e-07
0.000553425
7.7368e-07
0.000553413
8.43663e-07
0.000553403
9.32778e-07
0.000553392
1.02126e-06
0.000553386
1.12185e-06
0.000553378
1.23366e-06
0.000553377
1.34758e-06
0.000553376
1.48174e-06
0.000553379
1.61075e-06
0.000553387
1.7624e-06
0.000553399
1.90804e-06
0.000553419
2.07224e-06
2.236e-06
0.000553442
0.000558459
6.12037e-09
0.000558459
1.76865e-08
0.000558458
3.1305e-08
0.000558457
4.19674e-08
0.000558457
5.48355e-08
0.000558454
7.07848e-08
0.000558453
8.07064e-08
0.000558449
9.89996e-08
0.000558447
1.07805e-07
0.000558445
1.30855e-07
0.00055844
1.43041e-07
0.000558437
1.63908e-07
0.000558431
1.79994e-07
0.000558429
2.00027e-07
0.000558422
2.26722e-07
0.000558418
2.46119e-07
0.00055841
2.77394e-07
0.000558403
2.96894e-07
0.000558397
3.34487e-07
0.000558389
3.63457e-07
0.000558382
4.05082e-07
0.000558372
4.43193e-07
0.000558364
4.84987e-07
0.000558353
5.35845e-07
0.000558344
5.83385e-07
0.000558334
6.48396e-07
0.000558324
7.05817e-07
0.000558315
7.82226e-07
0.000558304
8.54522e-07
0.000558297
9.40086e-07
0.000558287
1.03099e-06
0.000558282
1.12647e-06
0.000558277
1.23874e-06
0.000558277
1.34807e-06
0.000558279
1.48007e-06
0.000558283
1.60602e-06
0.000558294
1.75194e-06
0.000558306
1.89529e-06
0.000558328
2.05086e-06
2.21158e-06
0.000558352
0.000563381
6.20924e-09
0.000563381
1.82402e-08
0.000563381
3.13269e-08
0.000563378
4.44314e-08
0.000563378
5.47955e-08
0.000563376
7.30197e-08
0.000563374
8.21608e-08
0.000563372
1.01684e-07
0.000563369
1.10918e-07
0.000563367
1.32229e-07
0.000563363
1.47607e-07
0.00056336
1.66333e-07
0.000563354
1.86092e-07
0.000563351
2.03006e-07
0.000563346
2.31806e-07
0.000563341
2.51131e-07
0.000563335
2.83157e-07
0.000563328
3.04634e-07
0.000563322
3.39598e-07
0.000563314
3.71899e-07
0.000563309