/*--------------------------------*- C++ -*----------------------------------*\
| =========                 |                                                 |
| \\      /  F ield         | OpenFOAM: The Open Source CFD Toolbox           |
|  \\    /   O peration     | Version:  v2012                                 |
|   \\  /    A nd           | Website:  www.openfoam.com                      |
|    \\/     M anipulation  |                                                 |
\*---------------------------------------------------------------------------*/
FoamFile
{
    version     2.0;
    format      ascii;
    class       volVectorField;
    location    "0.2";
    object      U;
}
// * * * * * * * * * * * * * * * * * * * * * * * * * * * * * * * * * * * * * //

dimensions      [0 1 -1 0 0 0 0];


internalField   nonuniform List<vector> 
9600
(
(49.721 0.000102487 0)
(50.2802 -0.00195237 0)
(49.7177 0.000720611 0)
(50.281 -0.00101388 0)
(49.7168 0.00172791 0)
(50.2818 -0.00102129 0)
(49.7168 0.00178871 0)
(50.2817 -0.00158078 0)
(49.7172 0.00180056 0)
(50.2801 -0.0019418 0)
(49.7178 0.00211949 0)
(50.277 -0.00218624 0)
(49.719 0.00252455 0)
(50.2726 -0.00244487 0)
(49.721 0.00291646 0)
(50.2671 -0.00273285 0)
(49.7235 0.00328052 0)
(50.2601 -0.00300355 0)
(49.7261 0.00363242 0)
(50.2521 -0.00324156 0)
(49.7281 0.00398458 0)
(50.2432 -0.0034524 0)
(49.729 0.004319 0)
(50.2339 -0.0036126 0)
(49.7284 0.00461271 0)
(50.2246 -0.00369961 0)
(49.7254 0.00491594 0)
(50.215 -0.00374745 0)
(49.719 0.00526581 0)
(50.205 -0.00377535 0)
(49.7084 0.00575877 0)
(50.1939 -0.00381854 0)
(49.6924 0.00635593 0)
(50.1801 -0.00399256 0)
(49.669 0.00714836 0)
(50.1607 -0.00410153 0)
(49.6344 0.00895899 0)
(50.1299 -0.00134483 0)
(49.5808 0.0199456 0)
(50.0799 0.0247078 0)
(49.9325 0.00122469 0)
(50.0613 -0.00415444 0)
(49.938 0.00224685 0)
(50.0543 -0.00249326 0)
(49.9443 0.00396501 0)
(50.0471 -0.00234624 0)
(49.9515 0.00397986 0)
(50.0394 -0.00323341 0)
(49.959 0.00379818 0)
(50.0307 -0.00377217 0)
(49.9665 0.00416725 0)
(50.0208 -0.00398072 0)
(49.9742 0.00467199 0)
(50.01 -0.00412025 0)
(49.9822 0.00509905 0)
(49.9987 -0.00424115 0)
(49.9901 0.00541881 0)
(49.987 -0.00427683 0)
(49.997 0.00568063 0)
(49.9753 -0.00418475 0)
(50.0023 0.00588918 0)
(49.9639 -0.00395924 0)
(50.0055 0.00602273 0)
(49.9531 -0.00360769 0)
(50.0063 0.00612974 0)
(49.9428 -0.00314638 0)
(50.0044 0.00623951 0)
(49.9324 -0.00254007 0)
(49.9992 0.006434 0)
(49.9212 -0.00178134 0)
(49.9902 0.00674379 0)
(49.9081 -0.000897813 0)
(49.9767 0.00746834 0)
(49.8914 4.84941e-05 0)
(49.9569 0.00903616 0)
(49.8681 0.00236159 0)
(49.928 0.0145037 0)
(49.8351 0.0137176 0)
(49.8885 0.0407923 0)
(49.7959 0.0672719 0)
(50.0162 0.00218338 0)
(49.9798 -0.00390724 0)
(50.0198 0.00275517 0)
(49.9755 -0.00279686 0)
(50.0226 0.00391888 0)
(49.9712 -0.00244375 0)
(50.0256 0.00397858 0)
(49.9674 -0.00292897 0)
(50.0285 0.00375429 0)
(49.9634 -0.00329506 0)
(50.0307 0.00392087 0)
(49.9588 -0.00329983 0)
(50.0323 0.00426668 0)
(49.9542 -0.00317695 0)
(50.0335 0.00455823 0)
(49.95 -0.00300155 0)
(50.0338 0.00474348 0)
(49.9461 -0.00273072 0)
(50.0326 0.0048588 0)
(49.9427 -0.002251 0)
(50.0296 0.00490252 0)
(49.9399 -0.00158375 0)
(50.0244 0.0049515 0)
(49.9376 -0.000868738 0)
(50.0172 0.00503943 0)
(49.9355 1.83247e-05 0)
(50.0078 0.00511254 0)
(49.9325 0.00114234 0)
(49.996 0.00527894 0)
(49.9276 0.00259174 0)
(49.9816 0.00551268 0)
(49.9199 0.00455552 0)
(49.9638 0.00626261 0)
(49.9075 0.00739866 0)
(49.9413 0.00875593 0)
(49.8882 0.0139108 0)
(49.9122 0.0178571 0)
(49.8616 0.0333838 0)
(49.8774 0.0485436 0)
(49.8335 0.085691 0)
(50.0295 0.00260376 0)
(49.9696 -0.00351397 0)
(50.0306 0.00274858 0)
(49.9681 -0.0028271 0)
(50.0304 0.00341068 0)
(49.9666 -0.00228033 0)
(50.0302 0.00357061 0)
(49.9655 -0.00227017 0)
(50.0301 0.00340194 0)
(49.9644 -0.00235375 0)
(50.0292 0.00336721 0)
(49.9628 -0.00214045 0)
(50.0277 0.00349791 0)
(49.961 -0.00173659 0)
(50.0257 0.00358322 0)
(49.9596 -0.00121738 0)
(50.0232 0.00356608 0)
(49.9581 -0.000577359 0)
(50.0196 0.00345993 0)
(49.9567 0.000292715 0)
(50.0149 0.00333449 0)
(49.9551 0.00132678 0)
(50.0088 0.00330958 0)
(49.9532 0.00237589 0)
(50.0016 0.00346479 0)
(49.9505 0.0035307 0)
(49.993 0.00377551 0)
(49.9464 0.00489603 0)
(49.9827 0.00438395 0)
(49.9399 0.00657672 0)
(49.9704 0.0054306 0)
(49.93 0.00888661 0)
(49.9554 0.00733457 0)
(49.9153 0.0127893 0)
(49.9364 0.0120334 0)
(49.8947 0.0215952 0)
(49.9125 0.024813 0)
(49.8689 0.0432809 0)
(49.8857 0.0563416 0)
(49.8433 0.0899098 0)
(50.021 0.00221365 0)
(49.9794 -0.00256503 0)
(50.0212 0.00225984 0)
(49.9791 -0.00215025 0)
(50.0202 0.00272873 0)
(49.9783 -0.00164658 0)
(50.0192 0.00302439 0)
(49.9779 -0.00145863 0)
(50.0183 0.00307471 0)
(49.9774 -0.00145537 0)
(50.0169 0.0031007 0)
(49.9763 -0.00126014 0)
(50.0149 0.00324019 0)
(49.9749 -0.00080616 0)
(50.0126 0.00333336 0)
(49.9735 -0.000143287 0)
(50.01 0.00322601 0)
(49.9719 0.000810617 0)
(50.0067 0.00294951 0)
(49.9698 0.00204186 0)
(50.0026 0.00262237 0)
(49.9673 0.00347365 0)
(49.9977 0.00234342 0)
(49.964 0.00505792 0)
(49.9918 0.00229512 0)
(49.9599 0.00672043 0)
(49.9847 0.00257652 0)
(49.9542 0.00859965 0)
(49.9759 0.00333415 0)
(49.9462 0.0108163 0)
(49.9652 0.00487618 0)
(49.9351 0.013671 0)
(49.9517 0.00803974 0)
(49.92 0.0184967 0)
(49.9345 0.0149425 0)
(49.9002 0.028571 0)
(49.9134 0.0305484 0)
(49.8769 0.0504114 0)
(49.891 0.0625592 0)
(49.8554 0.0924986 0)
(50.0112 0.00182866 0)
(49.9895 -0.00190474 0)
(50.0114 0.00189739 0)
(49.9893 -0.00142666 0)
(50.0103 0.00218641 0)
(49.9886 -0.000935455 0)
(50.0093 0.00235073 0)
(49.9882 -0.000590657 0)
(50.0084 0.00243084 0)
(49.9876 -0.000337004 0)
(50.0071 0.00239737 0)
(49.9864 4.56082e-05 0)
(50.0053 0.00240701 0)
(49.9848 0.000692966 0)
(50.0033 0.00237619 0)
(49.9832 0.00156189 0)
(50.001 0.00218731 0)
(49.9812 0.00274547 0)
(49.9982 0.00189399 0)
(49.9785 0.00415791 0)
(49.9947 0.00163514 0)
(49.9753 0.00569403 0)
(49.9904 0.00157394 0)
(49.9713 0.007312 0)
(49.9852 0.00186134 0)
(49.9664 0.00898813 0)
(49.9789 0.00267342 0)
(49.9601 0.0107722 0)
(49.9707 0.00421052 0)
(49.9518 0.0129087 0)
(49.9604 0.00684306 0)
(49.9408 0.0158924 0)
(49.9475 0.0115614 0)
(49.9263 0.0212062 0)
(49.9312 0.0205492 0)
(49.9082 0.0320393 0)
(49.912 0.0380986 0)
(49.8879 0.0537393 0)
(49.8926 0.0699596 0)
(49.8703 0.0923505 0)
(50.0053 0.00157046 0)
(49.9955 -0.00168487 0)
(50.0056 0.00172617 0)
(49.9953 -0.000945216 0)
(50.0046 0.00187823 0)
(49.9945 -0.000371575 0)
(50.0037 0.00184407 0)
(49.994 0.00013578 0)
(50.0029 0.00180493 0)
(49.9933 0.000738784 0)
(50.0018 0.00168003 0)
(49.992 0.00141644 0)
(50.0001 0.0015021 0)
(49.9903 0.00231819 0)
(49.9982 0.00128171 0)
(49.9885 0.00344415 0)
(49.9962 0.00102709 0)
(49.9862 0.00477933 0)
(49.9936 0.000841647 0)
(49.9833 0.00623529 0)
(49.9904 0.000839375 0)
(49.9798 0.0076824 0)
(49.9864 0.00121718 0)
(49.9755 0.0090704 0)
(49.9815 0.00214069 0)
(49.9705 0.0103976 0)
(49.9753 0.0037911 0)
(49.9641 0.011779 0)
(49.9674 0.00640484 0)
(49.9558 0.0135785 0)
(49.9573 0.010349 0)
(49.9452 0.0165071 0)
(49.9448 0.0165998 0)
(49.9316 0.0222163 0)
(49.9295 0.02724 0)
(49.9151 0.0337201 0)
(49.912 0.045791 0)
(49.8973 0.0555118 0)
(49.8953 0.0765541 0)
(49.8828 0.0917132 0)
(50.0026 0.000974905 0)
(49.9983 -0.000967711 0)
(50.0032 0.00103215 0)
(49.998 5.8354e-05 0)
(50.0022 0.00110428 0)
(49.9972 0.000764943 0)
(50.0013 0.000883273 0)
(49.9966 0.0013675 0)
(50.0007 0.000737157 0)
(49.9958 0.00220018 0)
(49.9996 0.000643298 0)
(49.9945 0.00304206 0)
(49.998 0.000492041 0)
(49.9927 0.0039865 0)
(49.9962 0.000379729 0)
(49.9908 0.00503845 0)
(49.9943 0.000366535 0)
(49.9884 0.00617651 0)
(49.9918 0.000631586 0)
(49.9855 0.00730903 0)
(49.9886 0.00122901 0)
(49.9819 0.00834094 0)
(49.9847 0.00230573 0)
(49.9776 0.00927146 0)
(49.9798 0.00399454 0)
(49.9726 0.0101894 0)
(49.9738 0.00647021 0)
(49.9663 0.0113229 0)
(49.9659 0.00992669 0)
(49.9582 0.0131352 0)
(49.9561 0.0147613 0)
(49.948 0.0164784 0)
(49.9441 0.0219507 0)
(49.9352 0.0230194 0)
(49.9298 0.0333921 0)
(49.9201 0.0354905 0)
(49.9141 0.052018 0)
(49.9045 0.0576234 0)
(49.8997 0.0810607 0)
(49.8923 0.0921766 0)
(50.0015 0.000281575 0)
(49.9994 0.000125464 0)
(50.0024 -0.000101802 0)
(49.9991 0.00127281 0)
(50.0014 7.88324e-05 0)
(49.9982 0.00220071 0)
(50.0006 -0.000193087 0)
(49.9976 0.0027488 0)
(50 -0.000360425 0)
(49.9969 0.00351379 0)
(49.999 -0.000202719 0)
(49.9955 0.00429045 0)
(49.9974 -6.0831e-06 0)
(49.9938 0.004976 0)
(49.9956 0.000288648 0)
(49.9919 0.00566623 0)
(49.9937 0.000774173 0)
(49.9895 0.00638799 0)
(49.9912 0.00158806 0)
(49.9866 0.00711138 0)
(49.9881 0.00278662 0)
(49.983 0.00779748 0)
(49.9842 0.00446731 0)
(49.9788 0.00847047 0)
(49.9793 0.00672105 0)
(49.9738 0.00928185 0)
(49.9733 0.00968751 0)
(49.9677 0.0105527 0)
(49.9656 0.0135581 0)
(49.9598 0.0128374 0)
(49.9561 0.0187682 0)
(49.95 0.0170317 0)
(49.9447 0.0262698 0)
(49.9379 0.0247154 0)
(49.9314 0.0378288 0)
(49.9241 0.0383417 0)
(49.9174 0.0559208 0)
(49.9102 0.0609026 0)
(49.9051 0.0830156 0)
(49.8999 0.0941792 0)
(50.0012 -0.000533477 0)
(49.9996 0.00159914 0)
(50.0022 -0.00134962 0)
(49.9995 0.00226136 0)
(50.0013 -0.000962457 0)
(49.9985 0.00334711 0)
(50.0004 -0.000816245 0)
(49.998 0.00366949 0)
(49.9999 -0.000807884 0)
(49.9974 0.00403887 0)
(49.9989 -0.000226013 0)
(49.9961 0.00455585 0)
(49.9973 0.000511317 0)
(49.9944 0.00486988 0)
(49.9955 0.00127384 0)
(49.9925 0.00518555 0)
(49.9936 0.00223424 0)
(49.9902 0.00561267 0)
(49.9912 0.00346728 0)
(49.9873 0.0061466 0)
(49.9881 0.00502516 0)
(49.9838 0.00677623 0)
(49.9842 0.00698267 0)
(49.9796 0.00756148 0)
(49.9794 0.0094083 0)
(49.9748 0.00868529 0)
(49.9735 0.012438 0)
(49.9687 0.0105077 0)
(49.966 0.0163088 0)
(49.961 0.0135925 0)
(49.9568 0.0215222 0)
(49.9516 0.0188146 0)
(49.9461 0.0290312 0)
(49.9403 0.0276598 0)
(49.9339 0.0404608 0)
(49.9276 0.0422718 0)
(49.9214 0.0579118 0)
(49.9152 0.064965 0)
(49.9109 0.0833113 0)
(49.9065 0.0968132 0)
(50.0011 -0.00116508 0)
(49.9994 0.00285799 0)
(50.0019 -0.00201669 0)
(49.9996 0.00261363 0)
(50.0012 -0.00152451 0)
(49.9986 0.00363442 0)
(50.0002 -0.000629167 0)
(49.9981 0.00370493 0)
(49.9997 -0.000265601 0)
(49.9977 0.00354526 0)
(49.9988 0.000676653 0)
(49.9964 0.0038238 0)
(49.9972 0.00187337 0)
(49.9948 0.00398169 0)
(49.9955 0.00291674 0)
(49.993 0.00415481 0)
(49.9936 0.00408925 0)
(49.9908 0.00457956 0)
(49.9912 0.00546839 0)
(49.9879 0.00524092 0)
(49.9882 0.00705891 0)
(49.9845 0.00614439 0)
(49.9844 0.00893593 0)
(49.9804 0.00737037 0)
(49.9797 0.0112167 0)
(49.9756 0.00907272 0)
(49.9739 0.0141057 0)
(49.9697 0.011568 0)
(49.9667 0.0178999 0)
(49.9623 0.0154143 0)
(49.958 0.0231461 0)
(49.9532 0.0215005 0)
(49.9479 0.0307358 0)
(49.9426 0.031247 0)
(49.9368 0.0420906 0)
(49.931 0.0464903 0)
(49.9257 0.059019 0)
(49.92 0.0689511 0)
(49.9167 0.0831182 0)
(49.9126 0.0991103 0)
(50.001 -0.00135575 0)
(49.999 0.00319527 0)
(50.0013 -0.00171328 0)
(49.9995 0.00220849 0)
(50.001 -0.00121682 0)
(49.9987 0.00291461 0)
(49.9998 0.000364709 0)
(49.9981 0.0029948 0)
(49.9993 0.00104767 0)
(49.9978 0.00247954 0)
(49.9986 0.00206572 0)
(49.9967 0.00268119 0)
(49.997 0.00348778 0)
(49.995 0.00300807 0)
(49.9953 0.00457836 0)
(49.9933 0.00333035 0)
(49.9936 0.00562325 0)
(49.9912 0.00401497 0)
(49.9913 0.00685733 0)
(49.9884 0.0050737 0)
(49.9884 0.00826798 0)
(49.985 0.00642862 0)
(49.9847 0.00994048 0)
(49.981 0.00813709 0)
(49.9801 0.012068 0)
(49.9763 0.0103553 0)
(49.9746 0.0149045 0)
(49.9706 0.013397 0)
(49.9676 0.0187609 0)
(49.9635 0.0178291 0)
(49.9593 0.0241683 0)
(49.9549 0.0245532 0)
(49.95 0.0319509 0)
(49.9449 0.0348679 0)
(49.9399 0.0433849 0)
(49.9343 0.0503024 0)
(49.93 0.060061 0)
(49.9247 0.0721071 0)
(49.9224 0.0833117 0)
(49.9186 0.100365 0)
(50.0008 -0.00110475 0)
(49.9987 0.00256817 0)
(50.0006 -0.000669871 0)
(49.9993 0.0013518 0)
(50.0006 -0.000316048 0)
(49.9988 0.00162945 0)
(49.9995 0.0016397 0)
(49.998 0.00203272 0)
(49.9988 0.00256411 0)
(49.9978 0.00152351 0)
(49.9983 0.00331592 0)
(49.9968 0.00178168 0)
(49.9968 0.00465333 0)
(49.9951 0.00252835 0)
(49.9951 0.00564384 0)
(49.9934 0.00320907 0)
(49.9935 0.00638936 0)
(49.9913 0.00424239 0)
(49.9913 0.00736127 0)
(49.9886 0.00574038 0)
(49.9885 0.00860486 0)
(49.9853 0.00749357 0)
(49.9849 0.010192 0)
(49.9814 0.00951645 0)
(49.9805 0.0123693 0)
(49.9769 0.0120111 0)
(49.9752 0.0153887 0)
(49.9714 0.0153632 0)
(49.9685 0.0195114 0)
(49.9646 0.0201704 0)
(49.9607 0.0251783 0)
(49.9565 0.0273533 0)
(49.9521 0.0331735 0)
(49.9473 0.0380477 0)
(49.9429 0.0447173 0)
(49.9377 0.0534282 0)
(49.9342 0.0612824 0)
(49.9293 0.0743321 0)
(49.9277 0.0839565 0)
(49.9244 0.10067 0)
(50.0007 -0.000528793 0)
(49.9987 0.0013319 0)
(50 0.000610353 0)
(49.9992 0.000550535 0)
(50.0003 0.00077145 0)
(49.999 0.000467855 0)
(49.9992 0.00256354 0)
(49.9979 0.00129723 0)
(49.9984 0.00367759 0)
(49.9976 0.00113867 0)
(49.9979 0.00403342 0)
(49.9968 0.00150529 0)
(49.9966 0.00506333 0)
(49.995 0.00270911 0)
(49.9949 0.00596911 0)
(49.9933 0.0038068 0)
(49.9934 0.00648852 0)
(49.9913 0.00508856 0)
(49.9913 0.00728071 0)
(49.9887 0.00685422 0)
(49.9886 0.0085343 0)
(49.9855 0.00883431 0)
(49.985 0.0102462 0)
(49.9817 0.0109883 0)
(49.9808 0.012647 0)
(49.9774 0.0135849 0)
(49.9756 0.0159653 0)
(49.9722 0.0171215 0)
(49.9693 0.0204047 0)
(49.9657 0.0222223 0)
(49.9621 0.0263392 0)
(49.9581 0.0297369 0)
(49.9541 0.0345735 0)
(49.9496 0.0406167 0)
(49.9458 0.0463036 0)
(49.941 0.0557352 0)
(49.9382 0.0628366 0)
(49.9338 0.0756793 0)
(49.9326 0.0849573 0)
(49.9299 0.100349 0)
(50.0006 3.15676e-05 0)
(49.9989 0.000187776 0)
(49.9997 0.00158619 0)
(49.9991 0.000155409 0)
(50 0.00169833 0)
(49.9991 -0.000172157 0)
(49.9991 0.0028863 0)
(49.998 0.000981299 0)
(49.9981 0.00414061 0)
(49.9975 0.00138716 0)
(49.9977 0.00424696 0)
(49.9967 0.00184043 0)
(49.9965 0.00489078 0)
(49.995 0.00334275 0)
(49.9948 0.00577469 0)
(49.9932 0.00481554 0)
(49.9933 0.00625371 0)
(49.9912 0.0062232 0)
(49.9913 0.00702276 0)
(49.9887 0.00803043 0)
(49.9886 0.00847905 0)
(49.9856 0.0100344 0)
(49.9851 0.0105202 0)
(49.982 0.0121518 0)
(49.981 0.0132448 0)
(49.9779 0.0147671 0)
(49.976 0.0168372 0)
(49.9729 0.0185092 0)
(49.9701 0.0215114 0)
(49.9667 0.0239627 0)
(49.9633 0.0276346 0)
(49.9596 0.0317821 0)
(49.956 0.0360695 0)
(49.9518 0.0427204 0)
(49.9486 0.0480072 0)
(49.9442 0.0574384 0)
(49.9418 0.0645275 0)
(49.9381 0.0764426 0)
(49.9371 0.086052 0)
(49.9351 0.0997165 0)
(50.0005 0.000414922 0)
(49.9992 -0.000508145 0)
(49.9996 0.00190563 0)
(49.9991 0.000165275 0)
(49.9997 0.00223762 0)
(49.9993 -0.000120361 0)
(49.9991 0.00272082 0)
(49.9982 0.00106435 0)
(49.998 0.0040261 0)
(49.9974 0.00205408 0)
(49.9975 0.00416588 0)
(49.9967 0.00258375 0)
(49.9965 0.00448028 0)
(49.9951 0.00413368 0)
(49.9949 0.0054079 0)
(49.9932 0.00585868 0)
(49.9933 0.00607093 0)
(49.9912 0.00728672 0)
(49.9914 0.00695912 0)
(49.9889 0.0089408 0)
(49.9887 0.0086966 0)
(49.9859 0.0108734 0)
(49.9852 0.0111299 0)
(49.9824 0.0129828 0)
(49.9811 0.0141275 0)
(49.9784 0.015691 0)
(49.9765 0.0178764 0)
(49.9736 0.0196884 0)
(49.9709 0.022701 0)
(49.9677 0.0254732 0)
(49.9646 0.029015 0)
(49.9611 0.0334886 0)
(49.9579 0.0376756 0)
(49.954 0.0443575 0)
(49.9511 0.0497817 0)
(49.9473 0.0586863 0)
(49.9452 0.0661437 0)
(49.9421 0.0769552 0)
(49.9414 0.0869 0)
(49.94 0.0991505 0)
(50.0003 0.000580465 0)
(49.9996 -0.000674335 0)
(49.9997 0.00171494 0)
(49.9992 0.000415336 0)
(49.9996 0.00236582 0)
(49.9993 0.000435315 0)
(49.9992 0.00242295 0)
(49.9985 0.00137021 0)
(49.9981 0.00360469 0)
(49.9975 0.00279356 0)
(49.9975 0.00399392 0)
(49.9968 0.00347188 0)
(49.9967 0.00411957 0)
(49.9953 0.00487859 0)
(49.9951 0.00510771 0)
(49.9933 0.00669843 0)
(49.9934 0.00612463 0)
(49.9914 0.00807645 0)
(49.9915 0.00727105 0)
(49.9892 0.00948113 0)
(49.9888 0.00927424 0)
(49.9863 0.0113391 0)
(49.9854 0.0120117 0)
(49.9829 0.0135834 0)
(49.9814 0.0151478 0)
(49.979 0.0165334 0)
(49.977 0.0189128 0)
(49.9744 0.0208308 0)
(49.9718 0.0238175 0)
(49.9688 0.0268914 0)
(49.9659 0.0303586 0)
(49.9626 0.0349851 0)
(49.9597 0.0392914 0)
(49.9562 0.0456726 0)
(49.9536 0.0515287 0)
(49.9503 0.0596308 0)
(49.9484 0.0675992 0)
(49.946 0.0773341 0)
(49.9454 0.0874605 0)
(49.9446 0.0986928 0)
(50.0002 0.000534427 0)
(49.9998 -0.000402519 0)
(49.9999 0.00134892 0)
(49.9994 0.00069088 0)
(49.9995 0.00222009 0)
(49.9993 0.00111058 0)
(49.9993 0.00226002 0)
(49.9987 0.00176582 0)
(49.9983 0.00317194 0)
(49.9976 0.00336058 0)
(49.9975 0.0038743 0)
(49.9968 0.00426083 0)
(49.9968 0.00400132 0)
(49.9955 0.00543359 0)
(49.9953 0.00502556 0)
(49.9935 0.0072071 0)
(49.9935 0.00643664 0)
(49.9916 0.00856095 0)
(49.9916 0.00789377 0)
(49.9896 0.00979378 0)
(49.989 0.0100465 0)
(49.9868 0.0116502 0)
(49.9857 0.0129317 0)
(49.9835 0.0141449 0)
(49.9818 0.016134 0)
(49.9797 0.0173918 0)
(49.9777 0.0199017 0)
(49.9753 0.0219319 0)
(49.9728 0.0249168 0)
(49.97 0.0281607 0)
(49.9672 0.0317068 0)
(49.9643 0.0362805 0)
(49.9616 0.0408433 0)
(49.9586 0.0468299 0)
(49.9561 0.053045 0)
(49.9534 0.0605268 0)
(49.9517 0.0686927 0)
(49.9498 0.0777594 0)
(49.9493 0.0876936 0)
(49.9489 0.0983109 0)
(50.0002 0.000428009 0)
(49.9999 -3.55065e-05 0)
(49.9999 0.00104833 0)
(49.9996 0.000866091 0)
(49.9995 0.00200738 0)
(49.9994 0.00163328 0)
(49.9993 0.0022324 0)
(49.9989 0.00218318 0)
(49.9985 0.00285769 0)
(49.9978 0.00371474 0)
(49.9976 0.00380801 0)
(49.9969 0.00486517 0)
(49.9969 0.00415532 0)
(49.9957 0.00580802 0)
(49.9955 0.00521681 0)
(49.9939 0.00739426 0)
(49.9936 0.00696947 0)
(49.992 0.00879134 0)
(49.9917 0.00870385 0)
(49.99 0.0100268 0)
(49.9893 0.0108475 0)
(49.9874 0.0119945 0)
(49.986 0.0137135 0)
(49.9841 0.0148122 0)
(49.9824 0.0169598 0)
(49.9804 0.0183368 0)
(49.9784 0.0208062 0)
(49.9763 0.0229962 0)
(49.9738 0.0260086 0)
(49.9713 0.0292576 0)
(49.9687 0.0330647 0)
(49.9661 0.0373758 0)
(49.9634 0.0423251 0)
(49.9609 0.0478663 0)
(49.9586 0.0543242 0)
(49.9564 0.06141 0)
(49.9548 0.0694337 0)
(49.9534 0.0782459 0)
(49.9531 0.0876184 0)
(49.9531 0.0979905 0)
(50.0001 0.000343024 0)
(50 0.000242892 0)
(49.9999 0.00094399 0)
(49.9998 0.000956726 0)
(49.9995 0.00183269 0)
(49.9994 0.00194228 0)
(49.9992 0.0023012 0)
(49.999 0.00258209 0)
(49.9986 0.00273291 0)
(49.998 0.00391571 0)
(49.9977 0.00380407 0)
(49.9969 0.00524937 0)
(49.9969 0.00449974 0)
(49.9959 0.00606251 0)
(49.9956 0.00560778 0)
(49.9943 0.00741824 0)
(49.9938 0.0075614 0)
(49.9924 0.00892697 0)
(49.9918 0.00950328 0)
(49.9905 0.0103276 0)
(49.9895 0.0115744 0)
(49.988 0.0124447 0)
(49.9865 0.0143565 0)
(49.9848 0.0155386 0)
(49.983 0.0176895 0)
(49.9812 0.0192786 0)
(49.9792 0.0216879 0)
(49.9773 0.0239869 0)
(49.9749 0.0270753 0)
(49.9728 0.030252 0)
(49.9701 0.0343131 0)
(49.9679 0.038412 0)
(49.9654 0.0435978 0)
(49.9633 0.0488935 0)
(49.9611 0.0553387 0)
(49.9593 0.0622545 0)
(49.958 0.069956 0)
(49.957 0.0786298 0)
(49.9568 0.0874482 0)
(49.9571 0.0975549 0)
(50 0.000309153 0)
(50.0001 0.000379866 0)
(49.9998 0.000982521 0)
(49.9999 0.00103436 0)
(49.9995 0.00170645 0)
(49.9994 0.00210281 0)
(49.9991 0.00237464 0)
(49.9989 0.00293514 0)
(49.9986 0.00278573 0)
(49.9981 0.00403206 0)
(49.9977 0.00389268 0)
(49.9971 0.00540172 0)
(49.9968 0.0049691 0)
(49.9961 0.00621385 0)
(49.9957 0.00613554 0)
(49.9947 0.007411 0)
(49.9939 0.00809115 0)
(49.9928 0.0090972 0)
(49.9919 0.0101332 0)
(49.9909 0.0107906 0)
(49.9898 0.0121506 0)
(49.9886 0.013034 0)
(49.987 0.0148827 0)
(49.9854 0.0162571 0)
(49.9836 0.0183939 0)
(49.982 0.0201181 0)
(49.98 0.0226187 0)
(49.9784 0.0248571 0)
(49.9761 0.0281428 0)
(49.9742 0.0311696 0)
(49.9716 0.0354181 0)
(49.9698 0.0394468 0)
(49.9673 0.0446118 0)
(49.9656 0.0499611 0)
(49.9637 0.0560811 0)
(49.9622 0.0630748 0)
(49.9611 0.0702949 0)
(49.9604 0.0788774 0)
(49.9604 0.0872518 0)
(49.9611 0.0969361 0)
(49.9999 0.00031797 0)
(50.0001 0.000399397 0)
(49.9997 0.00104891 0)
(49.9999 0.0011558 0)
(49.9995 0.00163485 0)
(49.9995 0.00220595 0)
(49.9991 0.00240997 0)
(49.9989 0.00321299 0)
(49.9986 0.00296589 0)
(49.9982 0.00411526 0)
(49.9978 0.00406957 0)
(49.9972 0.00540477 0)
(49.9968 0.00544985 0)
(49.9963 0.00632881 0)
(49.9957 0.00668326 0)
(49.995 0.00748391 0)
(49.9941 0.00851612 0)
(49.9931 0.00934772 0)
(49.9921 0.0105992 0)
(49.9912 0.0113488 0)
(49.9901 0.0126429 0)
(49.9891 0.0136861 0)
(49.9875 0.0153758 0)
(49.9862 0.0169283 0)
(49.9842 0.0190853 0)
(49.9829 0.0208765 0)
(49.9809 0.0235366 0)
(49.9795 0.0256752 0)
(49.9772 0.0291336 0)
(49.9757 0.0320617 0)
(49.9732 0.0363637 0)
(49.9716 0.0404491 0)
(49.9693 0.0454442 0)
(49.9679 0.0509577 0)
(49.9661 0.0566903 0)
(49.9651 0.0637656 0)
(49.9641 0.0705446 0)
(49.9638 0.0789714 0)
(49.9639 0.0870051 0)
(49.9649 0.0962211 0)
(49.9998 0.000326635 0)
(50.0002 0.000415366 0)
(49.9997 0.00106339 0)
(49.9999 0.00132974 0)
(49.9994 0.00161929 0)
(49.9995 0.00229253 0)
(49.999 0.002442 0)
(49.999 0.00337664 0)
(49.9985 0.00324011 0)
(49.9983 0.00417191 0)
(49.9978 0.00432487 0)
(49.9974 0.00535719 0)
(49.9967 0.00584922 0)
(49.9964 0.00649013 0)
(49.9957 0.00712954 0)
(49.9952 0.00772227 0)
(49.9942 0.00880427 0)
(49.9935 0.00969356 0)
(49.9923 0.0109314 0)
(49.9916 0.0119017 0)
(49.9904 0.0131304 0)
(49.9896 0.0142872 0)
(49.988 0.0159406 0)
(49.9869 0.0174935 0)
(49.9849 0.0197891 0)
(49.9838 0.0215604 0)
(49.9817 0.0243814 0)
(49.9807 0.0265114 0)
(49.9784 0.02997 0)
(49.9771 0.0329986 0)
(49.9747 0.0371232 0)
(49.9734 0.0414209 0)
(49.9713 0.0461394 0)
(49.9701 0.0518135 0)
(49.9686 0.0572629 0)
(49.9678 0.0642443 0)
(49.967 0.0708026 0)
(49.9671 0.0788622 0)
(49.9672 0.0867416 0)
(49.9686 0.0954217 0)
(49.9998 0.000311625 0)
(50.0003 0.00047935 0)
(49.9997 0.00101173 0)
(49.9999 0.00150672 0)
(49.9994 0.00165904 0)
(49.9996 0.0023708 0)
(49.999 0.00251168 0)
(49.9991 0.00342833 0)
(49.9984 0.00355426 0)
(49.9985 0.00423092 0)
(49.9978 0.00461704 0)
(49.9976 0.00534538 0)
(49.9967 0.00613301 0)
(49.9966 0.00671246 0)
(49.9957 0.00745427 0)
(49.9954 0.00808631 0)
(49.9944 0.0090205 0)
(49.9938 0.0100883 0)
(49.9925 0.0112054 0)
(49.992 0.0124001 0)
(49.9907 0.0136233 0)
(49.9901 0.0148203 0)
(49.9884 0.0165553 0)
(49.9876 0.0179907 0)
(49.9855 0.0204713 0)
(49.9847 0.0221929 0)
(49.9825 0.0251386 0)
(49.9818 0.0273465 0)
(49.9795 0.0306869 0)
(49.9785 0.03393 0)
(49.9763 0.0377611 0)
(49.9752 0.0423168 0)
(49.9733 0.0467422 0)
(49.9724 0.0525193 0)
(49.9709 0.0577892 0)
(49.9706 0.0645535 0)
(49.9698 0.0710345 0)
(49.9703 0.078605 0)
(49.9703 0.0864377 0)
(49.9721 0.0945476 0)
(49.9997 0.000272552 0)
(50.0003 0.000584047 0)
(49.9997 0.00094803 0)
(50 0.00162073 0)
(49.9994 0.00176891 0)
(49.9997 0.00242626 0)
(49.999 0.00264321 0)
(49.9992 0.00340893 0)
(49.9984 0.00383514 0)
(49.9986 0.00433644 0)
(49.9977 0.00487293 0)
(49.9978 0.00544122 0)
(49.9968 0.00629085 0)
(49.9967 0.0069913 0)
(49.9957 0.00769175 0)
(49.9956 0.00848616 0)
(49.9945 0.00925868 0)
(49.9941 0.0104414 0)
(49.9928 0.011523 0)
(49.9924 0.0127875 0)
(49.9909 0.0141348 0)
(49.9906 0.0152904 0)
(49.9889 0.0171602 0)
(49.9884 0.018504 0)
(49.9862 0.0210563 0)
(49.9856 0.0228438 0)
(49.9834 0.0257622 0)
(49.9828 0.0281733 0)
(49.9807 0.0313243 0)
(49.98 0.0347817 0)
(49.9779 0.0383729 0)
(49.9771 0.0430523 0)
(49.9752 0.0473258 0)
(49.9746 0.0530398 0)
(49.9732 0.0582658 0)
(49.9733 0.064735 0)
(49.9725 0.0711836 0)
(49.9734 0.0782902 0)
(49.9734 0.0860247 0)
(49.9755 0.0936623 0)
(49.9997 0.000223003 0)
(50.0003 0.000697694 0)
(49.9996 0.000928123 0)
(50.0001 0.00164618 0)
(49.9993 0.00192211 0)
(49.9998 0.00246242 0)
(49.999 0.0028207 0)
(49.9994 0.0033837 0)
(49.9983 0.00403627 0)
(49.9987 0.00449639 0)
(49.9977 0.00506762 0)
(49.998 0.00564532 0)
(49.9969 0.00637131 0)
(49.9969 0.00729033 0)
(49.9958 0.00789401 0)
(49.9958 0.00886092 0)
(49.9947 0.00954808 0)
(49.9945 0.0107321 0)
(49.993 0.0118992 0)
(49.9928 0.0130823 0)
(49.9912 0.0146499 0)
(49.9911 0.0157088 0)
(49.9893 0.0177265 0)
(49.9891 0.0190431 0)
(49.9869 0.0215497 0)
(49.9865 0.0235094 0)
(49.9844 0.0262619 0)
(49.9839 0.0289731 0)
(49.9819 0.0318899 0)
(49.9814 0.0355432 0)
(49.9794 0.0389651 0)
(49.9789 0.0436309 0)
(49.9771 0.0478963 0)
(49.9769 0.0533846 0)
(49.9754 0.058696 0)
(49.9759 0.0647957 0)
(49.9751 0.0712506 0)
(49.9765 0.0779339 0)
(49.9764 0.0854991 0)
(49.9788 0.0927862 0)
(49.9996 0.000192186 0)
(50.0004 0.000764783 0)
(49.9996 0.000980261 0)
(50.0002 0.00160504 0)
(49.9992 0.00206088 0)
(49.9999 0.00251017 0)
(49.9989 0.00298628 0)
(49.9995 0.0034273 0)
(49.9984 0.00413486 0)
(49.9988 0.00469792 0)
(49.9977 0.00521765 0)
(49.9982 0.0059013 0)
(49.997 0.00646009 0)
(49.9971 0.00753733 0)
(49.9959 0.00812235 0)
(49.9961 0.00916123 0)
(49.9948 0.00989361 0)
(49.9949 0.0109785 0)
(49.9932 0.0122888 0)
(49.9933 0.0133614 0)
(49.9915 0.0151041 0)
(49.9917 0.0161325 0)
(49.9898 0.0182085 0)
(49.9897 0.0196056 0)
(49.9876 0.0219873 0)
(49.9874 0.0241379 0)
(49.9853 0.0267129 0)
(49.985 0.0296696 0)
(49.9831 0.0324318 0)
(49.9828 0.0361919 0)
(49.9809 0.0395288 0)
(49.9807 0.0440997 0)
(49.9789 0.0483994 0)
(49.9791 0.0536258 0)
(49.9776 0.0590275 0)
(49.9785 0.0647708 0)
(49.9776 0.0712237 0)
(49.9794 0.0775314 0)
(49.9793 0.0848952 0)
(49.982 0.0918908 0)
(49.9996 0.000193232 0)
(50.0004 0.000764026 0)
(49.9995 0.00109326 0)
(50.0003 0.00155543 0)
(49.9992 0.00215542 0)
(50 0.00258117 0)
(49.9989 0.00310426 0)
(49.9997 0.00355717 0)
(49.9984 0.00415466 0)
(49.999 0.00491178 0)
(49.9978 0.00533902 0)
(49.9983 0.00615917 0)
(49.9971 0.00660274 0)
(49.9974 0.00770618 0)
(49.996 0.00839712 0)
(49.9964 0.00937773 0)
(49.9949 0.0102829 0)
(49.9953 0.0111967 0)
(49.9935 0.0126624 0)
(49.9938 0.0136607 0)
(49.9919 0.0154767 0)
(49.9922 0.0165907 0)
(49.9903 0.01859 0)
(49.9904 0.0201877 0)
(49.9883 0.0223752 0)
(49.9883 0.0247214 0)
(49.9862 0.0271437 0)
(49.9862 0.0302359 0)
(49.9842 0.0329773 0)
(49.9842 0.0367025 0)
(49.9823 0.0400818 0)
(49.9825 0.0444584 0)
(49.9807 0.0488253 0)
(49.9813 0.0537975 0)
(49.9798 0.0592262 0)
(49.981 0.0647048 0)
(49.9801 0.0710667 0)
(49.9822 0.0771103 0)
(49.9821 0.0842093 0)
(49.9851 0.090971 0)
(49.9995 0.000213763 0)
(50.0005 0.000728784 0)
(49.9994 0.00120362 0)
(50.0004 0.00155684 0)
(49.9992 0.00219112 0)
(50.0001 0.00267329 0)
(49.9989 0.00317801 0)
(49.9997 0.00373124 0)
(49.9985 0.00417098 0)
(49.9991 0.00508311 0)
(49.9978 0.00546767 0)
(49.9985 0.00637545 0)
(49.9972 0.00680652 0)
(49.9977 0.00782555 0)
(49.9961 0.00867948 0)
(49.9967 0.00955574 0)
(49.9951 0.0106588 0)
(49.9957 0.0114264 0)
(49.9938 0.0129928 0)
(49.9942 0.0139824 0)
(49.9922 0.0157896 0)
(49.9927 0.0170512 0)
(49.9908 0.0189136 0)
(49.9911 0.0207385 0)
(49.9891 0.0227408 0)
(49.9892 0.0252545 0)
(49.9872 0.0275543 0)
(49.9873 0.0307046 0)
(49.9854 0.0334875 0)
(49.9856 0.0371078 0)
(49.9837 0.0405996 0)
(49.9843 0.04472 0)
(49.9825 0.0491863 0)
(49.9834 0.0538902 0)
(49.9819 0.0593164 0)
(49.9834 0.0645916 0)
(49.9826 0.0707823 0)
(49.9849 0.0766775 0)
(49.9849 0.0834305 0)
(49.988 0.0900454 0)
(49.9994 0.000239914 0)
(50.0006 0.000697042 0)
(49.9993 0.00126176 0)
(50.0005 0.00162942 0)
(49.9991 0.0021782 0)
(50.0001 0.00277956 0)
(49.9988 0.00321681 0)
(49.9998 0.00390558 0)
(49.9985 0.00423472 0)
(49.9992 0.00518641 0)
(49.9978 0.00563072 0)
(49.9986 0.00651908 0)
(49.9972 0.00706432 0)
(49.998 0.00792119 0)
(49.9962 0.00893763 0)
(49.997 0.00973571 0)
(49.9952 0.0109707 0)
(49.996 0.0117049 0)
(49.9941 0.0132531 0)
(49.9947 0.0143303 0)
(49.9927 0.0160536 0)
(49.9933 0.0174896 0)
(49.9913 0.0192209 0)
(49.9918 0.0212129 0)
(49.9898 0.0231166 0)
(49.9901 0.0257078 0)
(49.9881 0.0279631 0)
(49.9885 0.0310861 0)
(49.9865 0.0339381 0)
(49.9871 0.0374438 0)
(49.9851 0.0410375 0)
(49.986 0.0449319 0)
(49.9842 0.0494546 0)
(49.9855 0.053923 0)
(49.984 0.0593085 0)
(49.9858 0.0644162 0)
(49.985 0.0704027 0)
(49.9875 0.0761995 0)
(49.9875 0.082588 0)
(49.9908 0.0890977 0)
(49.9994 0.000255425 0)
(50.0006 0.000696137 0)
(49.9992 0.00126639 0)
(50.0005 0.00174099 0)
(49.9991 0.00216637 0)
(50.0002 0.00287813 0)
(49.9988 0.00324955 0)
(49.9999 0.00404427 0)
(49.9985 0.00435023 0)
(49.9994 0.0052466 0)
(49.9978 0.00580972 0)
(49.9988 0.00661088 0)
(49.9973 0.00733563 0)
(49.9982 0.00802342 0)
(49.9964 0.00916269 0)
(49.9973 0.00992342 0)
(49.9954 0.0112191 0)
(49.9964 0.0120188 0)
(49.9944 0.0134603 0)
(49.9952 0.0146886 0)
(49.9931 0.0162783 0)
(49.9939 0.0178995 0)
(49.9919 0.0195159 0)
(49.9926 0.0216118 0)
(49.9905 0.0234928 0)
(49.9911 0.0260761 0)
(49.989 0.028377 0)
(49.9897 0.0313817 0)
(49.9876 0.0343401 0)
(49.9885 0.0377079 0)
(49.9865 0.0413883 0)
(49.9877 0.0451136 0)
(49.986 0.0496091 0)
(49.9875 0.0539296 0)
(49.9861 0.059186 0)
(49.9881 0.0641956 0)
(49.9873 0.06994 0)
(49.99 0.075654 0)
(49.9901 0.0817142 0)
(49.9936 0.0880916 0)
(49.9993 0.000249575 0)
(50.0007 0.000738097 0)
(49.9992 0.00123709 0)
(50.0006 0.00184459 0)
(49.9991 0.00218805 0)
(50.0003 0.00294628 0)
(49.9988 0.00331156 0)
(50 0.00412179 0)
(49.9985 0.00450819 0)
(49.9996 0.00528941 0)
(49.9979 0.00598039 0)
(49.999 0.0066919 0)
(49.9973 0.00756783 0)
(49.9985 0.0081679 0)
(49.9965 0.00934086 0)
(49.9976 0.0101248 0)
(49.9956 0.0114168 0)
(49.9967 0.0123318 0)
(49.9948 0.0136537 0)
(49.9957 0.0150171 0)
(49.9936 0.0164909 0)
(49.9944 0.0182602 0)
(49.9925 0.0198015 0)
(49.9933 0.0219505 0)
(49.9912 0.0238434 0)
(49.992 0.0263821 0)
(49.9899 0.0287695 0)
(49.9909 0.0316165 0)
(49.9888 0.0346887 0)
(49.9899 0.0379002 0)
(49.9879 0.0416574 0)
(49.9894 0.045255 0)
(49.9877 0.0496648 0)
(49.9895 0.0539087 0)
(49.9881 0.0589555 0)
(49.9903 0.0639351 0)
(49.9896 0.0693979 0)
(49.9925 0.0750429 0)
(49.9926 0.0808143 0)
(49.9963 0.0870179 0)
(49.9993 0.000231243 0)
(50.0007 0.000802572 0)
(49.9992 0.00120702 0)
(50.0006 0.00191188 0)
(49.999 0.00224264 0)
(50.0004 0.00298593 0)
(49.9988 0.00340448 0)
(50.0001 0.00415087 0)
(49.9984 0.00468174 0)
(49.9997 0.00533447 0)
(49.9979 0.00613612 0)
(49.9992 0.00678148 0)
(49.9973 0.00774489 0)
(49.9987 0.00835312 0)
(49.9967 0.00947545 0)