/*--------------------------------*- C++ -*----------------------------------*\
| =========                 |                                                 |
| \\      /  F ield         | OpenFOAM: The Open Source CFD Toolbox           |
|  \\    /   O peration     | Version:  v2012                                 |
|   \\  /    A nd           | Website:  www.openfoam.com                      |
|    \\/     M anipulation  |                                                 |
\*---------------------------------------------------------------------------*/
FoamFile
{
    version     2.0;
    format      ascii;
    class       volScalarField;
    location    "0.15";
    object      p;
}
// * * * * * * * * * * * * * * * * * * * * * * * * * * * * * * * * * * * * * //

dimensions      [0 2 -2 0 0 0 0];


internalField   nonuniform List<scalar> 
9600
(
28.5483
28.6165
28.6482
28.6564
28.6529
28.6517
28.6532
28.6656
28.6846
28.714
28.7473
28.7876
28.8259
28.8674
28.9085
28.9565
29.0098
29.0714
29.1399
29.2174
29.3031
29.4
29.5043
29.6215
29.7464
29.8932
30.0546
30.2457
30.454
30.7013
30.9737
31.3012
31.6711
32.1247
32.6505
33.3127
34.1128
35.1502
36.4373
38.0319
28.5798
28.6066
28.6293
28.6413
28.6506
28.653
28.6607
28.6679
28.6879
28.7118
28.7485
28.7841
28.8271
28.8643
28.9102
28.9539
29.0113
29.0689
29.1407
29.2147
29.3036
29.3972
29.5045
29.6185
29.7462
29.8895
30.054
30.2406
30.4533
30.6943
30.9728
31.2918
31.6713
32.113
32.6499
33.2834
34.0637
34.9617
35.9841
36.9553
28.5965
28.6005
28.6159
28.6301
28.6469
28.6546
28.6655
28.6717
28.6901
28.7113
28.7478
28.7819
28.8258
28.8624
28.9092
28.9522
29.0103
29.067
29.1394
29.2122
29.3018
29.3945
29.5021
29.6157
29.7433
29.8861
30.0499
30.2363
30.4477
30.6893
30.9646
31.2844
31.6579
32.0938
32.6129
33.2152
33.9166
34.6909
35.5048
36.2379
28.6067
28.5985
28.6084
28.6227
28.6419
28.6537
28.6663
28.6741
28.6912
28.7117
28.7462
28.7805
28.8232
28.8607
28.9069
28.9504
29.0083
29.0643
29.1374
29.2084
29.299
29.3892
29.4985
29.6081
29.7394
29.8785
30.0441
30.2277
30.4395
30.6784
30.9514
31.2685
31.6317
32.0588
32.5464
33.1127
33.7307
34.4112
35.073
35.6776
28.6123
28.5976
28.6044
28.6171
28.6372
28.6504
28.6649
28.6741
28.6916
28.7114
28.7449
28.7786
28.8208
28.8581
28.9041
28.9477
29.0053
29.0614
29.1336
29.2048
29.294
29.385
29.4918
29.6035
29.7312
29.8724
30.0333
30.2192
30.4248
30.6656
30.9298
31.2455
31.5925
32.0078
32.4593
32.986
33.5329
34.1287
34.6785
35.1722
28.6134
28.5966
28.6021
28.6128
28.6339
28.6467
28.6631
28.672
28.6914
28.7099
28.7441
28.7757
28.8187
28.8542
28.901
28.9438
29.0015
29.058
29.1282
29.2013
29.2868
29.3808
29.4825
29.5985
29.7194
29.8655
30.0179
30.2089
30.4043
30.649
30.9001
31.2139
31.5416
31.9409
32.3579
32.8421
33.3296
33.8462
34.3114
34.7083
28.616
28.5934
28.5983
28.609
28.6314
28.644
28.6606
28.6696
28.6892
28.7082
28.7416
28.7738
28.8149
28.8519
28.8961
28.9412
28.9952
29.0548
29.1205
29.1976
29.2775
29.3759
29.4713
29.5916
29.7057
29.8554
30.0012
30.1934
30.3826
30.6243
30.8677
31.1705
31.4847
31.8584
32.2488
32.6841
33.1253
33.567
33.9681
34.2818
28.6204
28.5879
28.5924
28.6048
28.629
28.6428
28.6576
28.6674
28.685
28.7066
28.7371
28.7725
28.8095
28.8504
28.8896
28.9389
28.9869
29.0511
29.1112
29.1925
29.2673
29.3686
29.4601
29.5813
29.6926
29.8405
29.9846
30.1717
30.3597
30.5914
30.8318
31.1163
31.4212
31.7634
32.1321
32.5179
32.9198
33.2949
33.6445
33.8908
28.6243
28.5832
28.5843
28.6014
28.6252
28.6436
28.6543
28.6662
28.6789
28.7046
28.7311
28.771
28.803
28.8482
28.8826
28.9351
28.9791
29.0451
29.1029
29.1842
29.2584
29.3576
29.45
29.5668
29.6799
29.821
29.9673
30.1446
30.3342
30.5519
30.7904
31.0544
31.3496
31.6613
32.0076
32.3492
32.7133
33.0333
33.3361
33.5319
28.6245
28.5811
28.5733
28.5961
28.6195
28.6446
28.6517
28.6659
28.6722
28.701
28.7244
28.7676
28.7978
28.8439
28.8774
28.9286
28.9729
29.0363
29.0958
29.1729
29.25
29.3436
29.4398
29.5492
29.6662
29.7983
29.9474
30.114
30.3037
30.5085
30.7417
30.9881
31.2694
31.5554
31.8758
32.181
32.5064
32.7826
33.0404
33.2005
28.6168
28.5855
28.5692
28.5898
28.6106
28.6427
28.6502
28.6657
28.6682
28.6953
28.7182
28.7613
28.7939
28.8375
28.8733
28.9199
28.9676
29.0252
29.0888
29.1595
29.2408
29.3277
29.4275
29.5303
29.6491
29.7744
29.9228
30.0821
30.2672
30.4627
30.6861
30.9184
31.182
31.4463
31.7386
32.0138
32.3006
32.5422
32.7571
32.8909
28.6021
28.592
28.5716
28.5839
28.6001
28.6357
28.6488
28.6647
28.6671
28.6879
28.7123
28.7521
28.7901
28.8295
28.8694
28.91
28.9612
29.013
29.0801
29.1456
29.2293
29.3117
29.412
29.5113
29.6279
29.7502
29.8934
30.0487
30.2255
30.4139
30.6247
30.8445
31.089
31.3338
31.5984
31.8474
32.0976
32.3106
32.4865
32.5986
28.5844
28.5958
28.5795
28.5807
28.5907
28.6238
28.6453
28.6622
28.6682
28.6808
28.7063
28.7409
28.7842
28.8208
28.8645
28.9006
28.9531
29.0012
29.0687
29.1321
29.2148
29.2962
29.3933
29.492
29.6032
29.7244
29.8605
30.0126
30.1799
30.3612
30.5591
30.7663
30.9924
31.2184
31.4568
31.6819
31.8987
32.0864
32.2286
32.32
28.5692
28.594
28.5877
28.5803
28.5839
28.6089
28.638
28.6575
28.6696
28.6763
28.7003
28.7293
28.7754
28.8117
28.8578
28.8925
28.9436
28.9899
29.0548
29.1185
29.1976
29.2804
29.3722
29.4716
29.5761
29.6961
29.825
29.9727
30.1317
30.3042
30.4906
30.6841
30.8929
31.1006
31.3145
31.5177
31.7045
31.8685
31.9828
32.0537
28.5596
28.5867
28.5904
28.5819
28.5807
28.5952
28.6269
28.6499
28.6687
28.6742
28.695
28.719
28.764
28.8017
28.8487
28.8851
28.933
28.979
29.0389
29.104
29.1784
29.2632
29.3497
29.4491
29.5479
29.6645
29.7878
29.9289
30.0812
30.2435
30.4191
30.5989
30.7907
30.9815
31.1721
31.3548
31.5155
31.6563
31.7483
31.7984
28.5554
28.5756
28.5869
28.5826
28.5804
28.5864
28.614
28.6394
28.664
28.673
28.6907
28.7106
28.751
28.7901
28.8372
28.877
28.9218
28.9683
29.0221
29.088
29.1578
29.2435
29.3264
29.4238
29.5191
29.6297
29.749
29.8817
30.0279
30.1799
30.3445
30.5115
30.6863
30.8612
31.0304
31.1932
31.3316
31.4499
31.5237
31.5539
28.5538
28.5648
28.5779
28.5802
28.5807
28.5825
28.6025
28.6269
28.6552
28.6699
28.6869
28.704
28.7383
28.7774
28.8234
28.8671
28.9098
28.9572
29.0056
29.0704
29.1365
29.2207
29.3024
29.3959
29.4894
29.5928
29.7078
29.8321
29.9712
30.1141
30.2671
30.4224
30.5807
30.74
30.8901
31.033
31.1526
31.2494
31.3075
31.3202
28.5522
28.5558
28.5665
28.5743
28.5789
28.5811
28.5941
28.6144
28.6433
28.6634
28.6826
28.6989
28.7271
28.7643
28.8078
28.8548
28.8968
28.9451
28.9899
29.0512
29.1148
29.1952
29.2771
29.3658
29.458
29.5545
29.6642
29.7808
29.9113
30.0463
30.1872
30.3315
30.4746
30.6179
30.7515
30.8747
30.9781
31.055
31.0987
31.0966
28.5488
28.549
28.5558
28.5655
28.5741
28.5789
28.5885
28.6039
28.63
28.6537
28.6759
28.694
28.7173
28.7515
28.7912
28.8399
28.8825
28.9312
28.9747
29.031
29.0925
29.1677
29.2495
29.334
29.4241
29.5151
29.6182
29.728
29.849
29.9762
30.1058
30.2388
30.3684
30.4957
30.6143
30.7191
30.8071
30.8668
30.8964
30.8824
28.5429
28.5434
28.5473
28.5556
28.5667
28.5743
28.5842
28.5955
28.6174
28.6418
28.6663
28.6879
28.7084
28.7396
28.7748
28.8228
28.8667
28.9152
28.9593
29.0103
29.0696
29.1391
29.2193
29.3009
29.3876
29.4748
29.5702
29.6737
29.7849
29.9035
30.0233
30.1443
30.2624
30.3738
30.4786
30.5666
30.6393
30.6848
30.7001
30.6766
28.5352
28.5375
28.5407
28.5462
28.5575
28.5673
28.579
28.5888
28.6061
28.6291
28.6542
28.6796
28.6997
28.7282
28.7595
28.8041
28.8493
28.8969
28.9426
28.9895
29.0459
29.1101
29.1868
29.2662
29.3488
29.4327
29.5209
29.6175
29.7198
29.8289
29.9396
30.0487
30.156
30.2532
30.344
30.4173
30.475
30.508
30.51
30.478
28.5269
28.5305
28.5349
28.5378
28.5476
28.5583
28.5717
28.5826
28.5961
28.617
28.6406
28.6685
28.6901
28.7166
28.7455
28.785
28.8304
28.8768
28.9238
28.9686
29.0211
29.0812
29.1526
29.2297
29.308
29.3885
29.4706
29.5595
29.654
29.7526
29.8547
29.9525
30.0491
30.1341
30.2108
30.2714
30.3142
30.336
30.3261
30.2857
28.5188
28.5222
28.5284
28.5303
28.5378
28.5482
28.5623
28.5756
28.587
28.6054
28.6267
28.6551
28.6792
28.7043
28.7318
28.7663
28.8103
28.8553
28.9025
28.9468
28.9954
29.052
29.1173
29.1913
29.2656
29.3421
29.4193
29.5001
29.5873
29.6756
29.7686
29.8562
29.9418
30.0162
30.0794
30.1285
30.1574
30.1683
30.148
30.0994
28.511
28.5129
28.5201
28.5233
28.5284
28.538
28.5513
28.567
28.5782
28.5941
28.6134
28.64
28.6665
28.691
28.7179
28.7483
28.7892
28.833
28.879
28.9236
28.9689
29.0222
29.0819
29.1511
29.2219
29.2935
29.3665
29.4398
29.5196
29.5985
29.6816
29.7598
29.8344
29.8993
29.9502
29.9882
30.0047
30.0048
29.9754
29.9188
28.5032
28.5035
28.5102
28.5159
28.5196
28.528
28.5396
28.5564
28.5691
28.583
28.6006
28.6243
28.6521
28.6766
28.7028
28.7309
28.7676
28.8101
28.8539
28.8985
28.9414
28.9912
29.0463
29.1096
29.1768
29.2431
29.3122
29.3787
29.4508
29.5213
29.594
29.6636
29.7272
29.7832
29.8231
29.8504
29.8562
29.8453
29.808
29.7436
28.495
28.4944
28.4994
28.5072
28.511
28.5181
28.528
28.5442
28.559
28.5718
28.5879
28.6086
28.6361
28.6614
28.6866
28.7133
28.7459
28.7865
28.8279
28.8716
28.9128
28.959
29.0104
29.0675
29.1304
29.1915
29.256
29.3169
29.3812
29.444
29.5065
29.5675
29.6208
29.6678
29.698
29.7153
29.7114
29.6901
29.6454
29.5737
28.486
28.4855
28.4883
28.497
28.5021
28.5082
28.5169
28.531
28.5475
28.5602
28.5752
28.5934
28.6188
28.645
28.6692
28.6951
28.7242
28.7621
28.8014
28.843
28.883
28.9254
28.9737
29.0249
29.0829
29.1391
29.1982
29.2543
29.3109
29.3666
29.4194
29.4715
29.5154
29.5532
29.575
29.5827
29.5703
29.5393
29.4872
29.409
28.476
28.4764
28.4779
28.4857
28.4924
28.4981
28.506
28.5177
28.5345
28.5481
28.562
28.5784
28.601
28.6275
28.651
28.676
28.7023
28.737
28.7745
28.8133
28.852
28.8907
28.9358
28.9821
29.0347
29.0858
29.1391
29.1906
29.2401
29.2891
29.3328
29.3761
29.411
29.4397
29.4537
29.4524
29.4325
29.3925
29.3335
29.2491
28.4654
28.4669
28.468
28.4738
28.4817
28.4875
28.495
28.5046
28.5203
28.5351
28.5483
28.5636
28.583
28.6087
28.632
28.6559
28.6803
28.7112
28.7468
28.7828
28.8197
28.8552
28.8966
28.9389
28.9859
29.0321
29.0791
29.1258
29.169
29.2113
29.2468
29.2813
29.3077
29.3276
29.3342
29.3247
29.2978
29.2498
29.1842
29.094
28.4545
28.4565
28.4582
28.4621
28.47
28.4763
28.4836
28.492
28.5056
28.521
28.5339
28.5485
28.5651
28.589
28.6121
28.6348
28.6578
28.685
28.7184
28.7517
28.7863
28.8188
28.8562
28.895
28.9365
28.978
29.0187
29.0602
29.0975
29.1333
29.1616
29.1874
29.2059
29.217
29.2164
29.1993
29.1658
29.111
29.0389
28.9436
28.4436
28.4453
28.4478
28.4507
28.4576
28.4644
28.4715
28.4795
28.4908
28.5059
28.5188
28.5327
28.5475
28.5687
28.5913
28.6129
28.6347
28.6585
28.6891
28.7199
28.752
28.7818
28.8149
28.8502
28.8868
28.9235
28.958
28.9939
29.0255
29.0552
29.077
29.0944
29.1053
29.108
29.1006
29.0763
29.0365
28.9758
28.8975
28.7977
28.4326
28.4337
28.4366
28.4394
28.445
28.452
28.4587
28.4666
28.4761
28.4901
28.5029
28.5162
28.5298
28.5481
28.5697
28.5901
28.6108
28.6318
28.659
28.6875
28.7168
28.7441
28.7729
28.8044
28.8365
28.8686
28.8974
28.9273
28.9533
28.9771
28.993
29.0026
29.0062
29.0008
28.9867
28.9558
28.9099
28.8439
28.7599
28.6561
28.4214
28.4218
28.4245
28.4279
28.4324
28.439
28.4454
28.4531
28.4615
28.4739
28.4864
28.499
28.5118
28.5274
28.5474
28.5666
28.586
28.6048
28.6285
28.6545
28.6809
28.7058
28.7304
28.758
28.7857
28.8134
28.837
28.8606
28.8811
28.8988
28.9094
28.9119
28.9083
28.8955
28.8746
28.8378
28.7859
28.7152
28.626
28.5184
28.4097
28.41
28.412
28.4157
28.4197
28.4257
28.4317
28.4389
28.4468
28.4575
28.4694
28.481
28.4931
28.5067
28.5246
28.5424
28.5604
28.5774
28.5977
28.6208
28.6444
28.6668
28.6876
28.711
28.7344
28.7577
28.7766
28.7941
28.8091
28.8207
28.8263
28.8224
28.812
28.7921
28.7644
28.7223
28.6646
28.5895
28.4955
28.3843
28.3974
28.398
28.3993
28.4029
28.4068
28.4122
28.4177
28.4241
28.4316
28.4409
28.4519
28.4626
28.4738
28.4858
28.5014
28.5176
28.534
28.5494
28.5666
28.5867
28.6073
28.6272
28.6446
28.6636
28.6827
28.7016
28.7163
28.728
28.7373
28.743
28.7435
28.7339
28.7171
28.6906
28.6563
28.6091
28.546
28.4667
28.3683
28.2538
28.3846
28.3857
28.3867
28.3896
28.3934
28.3983
28.4035
28.409
28.4158
28.424
28.434
28.4437
28.4539
28.4644
28.4779
28.4924
28.507
28.5207
28.5351
28.5522
28.5698
28.5869
28.6012
28.616
28.6309
28.6453
28.6559
28.6624
28.6661
28.6659
28.6612
28.6466
28.6238
28.5912
28.5503
28.4981
28.4301
28.3467
28.2445
28.1266
28.3715
28.3731
28.3741
28.376
28.3796
28.384
28.389
28.3937
28.3996
28.4069
28.4157
28.4246
28.4334
28.4427
28.4541
28.4668
28.4796
28.4915
28.5033
28.5175
28.5319
28.5461
28.5574
28.5682
28.5789
28.5888
28.5954
28.5971
28.5954
28.5896
28.5795
28.5601
28.5318
28.4937
28.4465
28.3894
28.3168
28.2295
28.1238
28.0026
28.3581
28.3598
28.3612
28.3624
28.3654
28.3693
28.3741
28.3783
28.383
28.3893
28.3971
28.405
28.4127
28.4204
28.43
28.4408
28.4517
28.4618
28.4712
28.4823
28.4938
28.505
28.5134
28.5204
28.5269
28.5323
28.5349
28.5322
28.5255
28.5141
28.4986
28.4747
28.4413
28.3981
28.345
28.2829
28.2061
28.115
28.0063
27.8817
28.3447
28.3461
28.3479
28.3487
28.3509
28.3543
28.3586
28.3626
28.3663
28.3714
28.378
28.3851
28.3916
28.3979
28.4055
28.4144
28.4235
28.4317
28.4387
28.447
28.4554
28.4635
28.4691
28.4725
28.475
28.476
28.4745
28.4676
28.4562
28.4396
28.4187
28.3903
28.3522
28.3043
28.2457
28.1787
28.098
28.0031
27.8919
27.7641
28.3313
28.3321
28.3341
28.335
28.3363
28.339
28.3427
28.3466
28.3495
28.3533
28.3586
28.3647
28.3703
28.375
28.3808
28.3877
28.3949
28.4012
28.406
28.4114
28.4169
28.422
28.4246
28.4245
28.4232
28.42
28.4144
28.4035
28.3875
28.3661
28.3399
28.3071
28.2644
28.2122
28.1488
28.0768
27.9925
27.8939
27.7802
27.6496
28.3177
28.3179
28.3196
28.3209
28.3216
28.3236
28.3264
28.33
28.3324
28.3351
28.339
28.3439
28.3486
28.352
28.3558
28.3608
28.366
28.3705
28.373
28.3757
28.3782
28.3803
28.3801
28.3766
28.3716
28.3642
28.3546
28.3398
28.3194
28.2937
28.2623
28.2251
28.1781
28.1217
28.0542
27.9772
27.8893
27.7874
27.6713
27.5384
28.3039
28.3037
28.3048
28.3064
28.3069
28.3081
28.31
28.313
28.3151
28.3167
28.3193
28.3227
28.3265
28.3287
28.3307
28.3336
28.3368
28.3396
28.3399
28.3398
28.3395
28.3385
28.3355
28.3288
28.3202
28.3089
28.2952
28.2767
28.2521
28.2223
28.186
28.1443
28.0934
28.0328
27.9616
27.88
27.7886
27.6836
27.5649
27.4303
28.2898
28.2894
28.2899
28.2915
28.2919
28.2925
28.2935
28.2956
28.2975
28.2981
28.2995
28.3013
28.304
28.3052
28.3055
28.3064
28.3074
28.3083
28.3067
28.304
28.3008
28.2967
28.291
28.2812
28.2691
28.2541
28.2362
28.2142
28.1856
28.1518
28.1112
28.0648
28.0103
27.9457
27.8711
27.7854
27.6902
27.5824
27.4612
27.325
28.2753
28.2751
28.2749
28.2763
28.2767
28.2768
28.277
28.278
28.2795
28.2794
28.2796
28.2799
28.2811
28.2815
28.2802
28.2791
28.2778
28.2768
28.2735
28.2681
28.2622
28.255
28.2465
28.2339
28.2183
28.1998
28.1779
28.1524
28.1201
28.0822
28.0377
27.9869
27.9287
27.8603
27.7823
27.6932
27.5943
27.4839
27.3601
27.2224
28.2605
28.2606
28.26
28.2607
28.2612
28.2608
28.2604
28.2603
28.2611
28.2605
28.2595
28.2585
28.258
28.2574
28.2547
28.2518
28.2484
28.2451
28.2401
28.2323
28.2238
28.2135
28.2021
28.1869
28.1679
28.1461
28.1203
28.0911
28.0555
28.0137
27.9656
27.9104
27.8487
27.7769
27.6954
27.6033
27.5008
27.3878
27.2618
27.1225
28.2456
28.2459
28.2451
28.2451
28.2454
28.2447
28.2438
28.2426
28.2424
28.2413
28.2394
28.2371
28.2349
28.2331
28.2292
28.2244
28.219
28.2133
28.2066
28.1967
28.1855
28.1724
28.1578
28.1402
28.118
28.0929
28.0635
28.0306
27.9919
27.9464
27.8948
27.8357
27.7702
27.6953
27.6105
27.5156
27.4098
27.2941
27.1661
27.0251
28.2305
28.231
28.2303
28.2294
28.2294
28.2284
28.2271
28.225
28.2236
28.222
28.2191
28.2158
28.2118
28.2085
28.2036
28.1971
28.1898
28.1817
28.173
28.1612
28.1474
28.1316
28.1139
28.0938
28.0687
28.0403
28.0077
27.971
27.9293
27.8803
27.8252
27.7626
27.6933
27.6156
27.5276
27.43
27.3214
27.2029
27.073
26.9303
28.2154
28.2158
28.2153
28.2138
28.2132
28.2119
28.2102
28.2075
28.2048
28.2024
28.1987
28.1943
28.1889
28.1839
28.1779
28.1697
28.1606
28.1503
28.1394
28.1258
28.1095
28.0913
28.0706
28.0476
28.02
27.9884
27.9527
27.9124
27.8675
27.8154
27.757
27.6912
27.6182
27.5376
27.4468
27.3465
27.2354
27.1142
26.9825
26.8382
28.2003
28.2005
28.2002
28.1983
28.197
28.1953
28.1931
28.19
28.186
28.1827
28.1782
28.1728
28.1662
28.1593
28.152
28.1425
28.1316
28.1192
28.106
28.0906
28.072
28.0513
28.0278
28.002
27.9719
27.9372
27.8986
27.8549
27.8068
27.7519
27.6902
27.6214
27.545
27.4614
27.368
27.265
27.1518
27.0281
26.8944
26.7488
28.1854
28.1851
28.1847
28.1829
28.1808
28.1786
28.1758
28.1724
28.1675
28.163
28.1577
28.1512
28.1436
28.1349
28.1261
28.1153
28.1026
28.0884
28.0728
28.0556
28.0349
28.0116
27.9856
27.9569
27.9244
27.8869
27.8453
27.7986
27.7472
27.6895
27.6248
27.5532
27.4737
27.387
27.2912
27.1858
27.0705
26.9445
26.8088
26.6619
28.1704
28.1697
28.1691
28.1675
28.1647
28.1619
28.1586
28.1546
28.1491
28.1433
28.1372
28.1297
28.121
28.1108
28.1003
28.0883
28.0739
28.0579
28.0401
28.0207
27.9982
27.9725
27.944
27.9125
27.8775
27.8375
27.793
27.7435
27.689
27.6285
27.5609
27.4865
27.4043
27.3146
27.2164
27.1087
26.9914
26.8635
26.7258
26.5776
28.1554
28.1545
28.1534
28.152
28.1488
28.1454
28.1413
28.1368
28.1309
28.1238
28.1166
28.1082
28.0984
28.087
28.0747
28.0613
28.0455
28.0276
28.0078
27.9862
27.9619
27.934
27.903
27.869
27.8314
27.789
27.7417
27.6895
27.632
27.5688
27.4986
27.4215
27.3367
27.2443
27.1436
27.0337
26.9145
26.7849
26.6454
26.4958
28.1404
28.1394
28.1379
28.1363
28.133
28.1289
28.1242
28.1189
28.1126
28.1046
28.0962
28.0868
28.076
28.0634
28.0494
28.0344
28.0173
27.9977
27.976
27.9522
27.9259
27.896
27.8628
27.8262
27.7861
27.7413
27.6915
27.6366
27.5765
27.5105
27.4378
27.3581
27.2709
27.176
27.0729
26.961
26.8398
26.7087
26.5675
26.4166
28.1253
28.1245
28.1225
28.1205
28.1173
28.1126
28.1073
28.1012
28.0943
28.0857
28.076
28.0656
28.0537
28.04
28.0246
28.0079
27.9894
27.9682
27.9446
27.9188
27.8905
27.8588
27.8232
27.7843
27.7417
27.6947
27.6424
27.585
27.5223
27.4538
27.3786
27.2964
27.2069
27.1097
27.0044
26.8904
26.7675
26.6349
26.4923
26.34
28.1103
28.1096
28.1075
28.1048
28.1015
28.0965
28.0905
28.0836
28.076
28.0669
28.0561
28.0445
28.0316
28.0169
28.0001
27.9817
27.9617
27.9391
27.9138
27.886
27.8557
27.8221
27.7845
27.7433
27.6983
27.649
27.5946
27.5347
27.4695
27.3985
27.321
27.2365
27.1447
27.0454
26.938
26.8221
26.6974
26.5634
26.4195
26.266
28.0954
28.0947
28.0926
28.0894
28.0857
28.0805
28.074
28.0664
28.0579
28.0482
28.0365
28.0238
28.0097
27.9939
27.976
27.9561
27.9345
27.9105
27.8836
27.8539
27.8215
27.7861
27.7467
27.7032
27.656
27.6044
27.5479
27.4857
27.4181
27.3448
27.2651
27.1784
27.0845
26.9831
26.8738
26.756
26.6296
26.4942
26.3492
26.1946
28.0807
28.08
28.0779
28.0742
28.0701
28.0646
28.0576
28.0494
28.04
28.0296
28.0173
28.0034
27.9883
27.9713
27.9523
27.931
27.9078
27.8823
27.8539
27.8226
27.7882
27.7508
27.7097
27.6642
27.6147
27.561
27.5024
27.4381
27.3682
27.2927
27.2109
27.1221
27.0261
26.9227
26.8117
26.6922
26.5641
26.4274
26.2813
26.1257
28.0663
28.0654
28.0633
28.0594
28.0547
28.0489
28.0414
28.0327
28.0225
28.0113
27.9983
27.9835
27.9672
27.949
27.929
27.9065
27.8816
27.8547
27.8248
27.7919
27.7557
27.7164
27.6735
27.6262
27.5747
27.5188
27.4581
27.392
27.3199
27.2422
27.1584
27.0677
26.9698
26.8645
26.7517
26.6307
26.5011
26.363
26.2158
26.0594
28.0522
28.051
28.0488
28.0449
28.0396
28.0334
28.0255
28.0163
28.0054
27.9933
27.9796
27.9639
27.9466
27.9273
27.906
27.8825
27.8562
27.8277
27.7964
27.762
27.7241
27.6829
27.6383
27.5893
27.5358
27.4779
27.4152
27.3472
27.2732
27.1934
27.1076
27.0151
26.9154
26.8083
26.6938
26.5714
26.4404
26.301
26.1528
25.9956
28.0383
28.037
28.0345
28.0306
28.0249
28.0182
28.0099
28.0002
27.9887
27.9757
27.9613
27.9448
27.9264
27.9061
27.8836
27.859
27.8314
27.8015
27.7687
27.7328
27.6935
27.6505
27.6041
27.5534
27.4982
27.4383
27.3737
27.3039
27.2281
27.1464
27.0587
26.9644
26.8631
26.7543
26.6382
26.5144
26.3821
26.2415
26.0923
25.9342
28.0247
28.0233
28.0206
28.0165
28.0106
28.0034
27.9946
27.9844
27.9724
27.9586
27.9433
27.9261
27.9068
27.8854
27.8618
27.8361
27.8074
27.776
27.7418
27.7045
27.6637
27.6191
27.571
27.5187
27.4618
27.4002
27.3337
27.2621
27.1847
27.1011
27.0116
26.9157
26.8128
26.7025
26.5848
26.4596
26.3263
26.1845
26.0343
25.8754
28.0114
28.01
28.007
28.0027
27.9966
27.989
27.9798
27.969
27.9565
27.942
27.9259
27.9079
27.8878
27.8654
27.8407
27.8138
27.7841
27.7514
27.7158
27.6771
27.635
27.5889
27.539
27.4852
27.4267
27.3635
27.2952
27.2218
27.1429
27.0577
26.9665
26.8689
26.7645
26.6529
26.5337
26.4072
26.2728
26.13
25.9788
25.8192
27.9984
27.997
27.9939
27.9893
27.983
27.975
27.9654
27.954
27.941
27.926
27.9091
27.8903
27.8693
27.8461
27.8203
27.7923
27.7615
27.7276
27.6908
27.6507
27.6072
27.5598
27.5083
27.4529
27.393
27.3282
27.2583
27.1833
27.1028
27.0161
26.9233
26.8241
26.7183
26.6054
26.4849
26.3571
26.2216
26.078
25.926
25.7656
27.9859
27.9844
27.9812
27.9763
27.9698
27.9615
27.9514
27.9396
27.926
27.9104
27.8928
27.8732
27.8514
27.8274
27.8007
27.7715
27.7397
27.7048
27.6667
27.6253
27.5805
27.5318
27.4789
27.422
27.3606
27.2944
27.223
27.1464
27.0644
26.9764
26.8821
26.7815
26.6743
26.5601
26.4385
26.3095
26.173
26.0284
25.8757
25.7147
27.9738
27.9723
27.969
27.9639
27.9571
27.9485
27.938
27.9257
27.9115
27.8954
27.8772
27.8568
27.8343
27.8094
27.7819
27.7517
27.7188
27.6828
27.6436
27.601
27.5549
27.505
27.4508
27.3925
27.3298
27.2621
27.1894
27.1113
27.0279
26.9385
26.8429
26.7409
26.6324
26.5171
26.3944
26.2643
26.1268
25.9814
25.828
25.6664
27.9622
27.9606
27.9572
27.9519
27.9448
27.9359
27.9251
27.9124
27.8977
27.8811
27.8622
27.8412
27.8178
27.7922
27.7638
27.7327
27.6988
27.6618
27.6216
27.5779
27.5306
27.4795
27.4241
27.3645
27.3004
27.2315
27.1575
27.0781
26.9932
26.9026
26.8057
26.7025
26.5928
26.4763
26.3527
26.2216
26.0831
25.937
25.783
25.6208
27.9512
27.9495
27.9459
27.9405
27.9332
27.924
27.9128
27.8997
27.8845
27.8673
27.8479
27.8263
27.8022
27.7758
27.7467
27.7147
27.6799
27.6419
27.6007
27.5559
27.5075
27.4552
27.3988
27.3379
27.2726
27.2025
27.1272
27.0466
26.9605
26.8687
26.7707
26.6663
26.5555
26.4379
26.3133
26.1814
26.042
25.8952
25.7405
25.5779
27.9407
27.9389
27.9353
27.9297
27.9221
27.9126
27.9012
27.8876
27.872
27.8543
27.8344
27.8121
27.7874
27.7603
27.7304
27.6976
27.6619
27.6231
27.5809
27.5352
27.4857
27.4324
27.3749
27.3129
27.2465
27.1752
27.0988
27.0171
26.9298
26.8368
26.7377
26.6324
26.5205
26.4019
26.2764
26.1437
26.0036
25.856
25.7008
25.5377
27.9307
27.9289
27.9252
27.9195
27.9117
27.9019
27.8902
27.8763
27.8603
27.8421
27.8216
27.7988
27.7735
27.7457
27.7151
27.6816
27.6451
27.6054
27.5624
27.5158
27.4653
27.411
27.3525
27.2895
27.222
27.1496
27.0722
26.9895
26.9011
26.8071
26.707
26.6007
26.4878
26.3683
26.242
26.1085
25.9677
25.8195
25.6637
25.5002
27.9215
27.9196
27.9157
27.9099
27.9019
27.8919
27.8799
27.8656
27.8493
27.8306
27.8097
27.7864
27.7605
27.7321
27.7008
27.6666
27.6294
27.5889
27.5451
27.4976
27.4463
27.3911
27.3317
27.2678
27.1993
27.1259
27.0475
26.9638
26.8745
26.7795
26.6785
26.5713
26.4576
26.3373
26.2102
26.076
25.9346
25.7858
25.6295
25.4656
27.9128
27.911
27.907
27.901
27.8929
27.8826
27.8703
27.8558
27.8391
27.82
27.7987
27.7749
27.7485
27.7195
27.6876
27.6528
27.6149
27.5737
27.5291
27.4809
27.4288
27.3727
27.3125
27.2477
27.1783
27.1041
27.0248
26.9402
26.85
26.7541
26.6523
26.5442
26.4298
26.3087
26.1809
26.0461
25.9041
25.7548
25.5981
25.4337
27.9049
27.903
27.899
27.8928
27.8846
27.8741
27.8615
27.8468
27.8297
27.8103
27.7886
27.7643
27.7375
27.7079
27.6755
27.6402
27.6016
27.5598
27.5145
27.4656
27.4128
27.3559
27.2949
27.2294
27.1592
27.0842
27.0041
26.9187
26.8277
26.731
26.6285
26.5196
26.4045
26.2828
26.1543
26.0189
25.8764
25.7267
25.5695
25.4048
27.8977
27.8958
27.8917
27.8854
27.877
27.8664
27.8536
27.8386
27.8212
27.8015
27.7794
27.7548
27.7275
27.6975
27.6646
27.6288
27.5896
27.5473
27.5013
27.4518
27.3984
27.3408
27.2791
27.2129
27.142
27.0663
26.9854
26.8993
26.8076
26.7102
26.607
26.4975
26.3817
26.2595
26.1304
25.9945
25.8516
25.7014
25.5439
25.3789
27.8913
27.8894
27.8852
27.8788
27.8703
27.8596
27.8465
27.8313
27.8137
27.7937
27.7713
27.7463
27.7187
27.6882
27.6549
27.6186
27.579
27.5361
27.4896
27.4395
27.3855
27.3274
27.2651
27.1983
27.1267
27.0504
26.9689
26.8821
26.7899
26.6918
26.588
26.478
26.3616
26.2388
26.1093
25.9729
25.8296
25.679
25.5212
25.356
27.8858
27.8838
27.8796
27.8731
27.8645
27.8536
27.8404
27.8249
27.8071
27.7869
27.7642
27.7389
27.711
27.6801
27.6464
27.6097
27.5697
27.5264
27.4795
27.4289
27.3744
27.3157
27.2529
27.1855
27.1134
27.0366
26.9545
26.8672
26.7744
26.6759
26.5715
26.461
26.3442
26.2209
26.0909
25.9542
25.8105
25.6596
25.5016
25.3361
27.8811
27.879
27.8748
27.8682
27.8595
27.8485
27.8352
27.8196
27.8015
27.7811
27.7582
27.7326
27.7044
27.6733
27.6393
27.6022
27.5619
27.5181
27.4708
27.4198
27.3649
27.3059
27.2426
27.1748
27.1022
27.0249
26.9424
26.8546
26.7614
26.6624
26.5576
26.4467
26.3294
26.2058
26.0755
25.9384
25.7944
25.6433
25.485
25.3194
27.8772
27.8752
27.8709
27.8643
27.8555
27.8444
27.8309
27.8152
27.797
27.7764
27.7533
27.7275
27.6991
27.6677
27.6335
27.5961
27.5555
27.5115
27.4639
27.4125
27.3573
27.2979
27.2342
27.166
27.0932
27.0154
26.9326
26.8444
26.7508
26.6515
26.5463
26.4351
26.3175
26.1936
26.063
25.9257
25.7814
25.6301
25.4716
25.3058
27.8743
27.8722
27.8679
27.8613
27.8524
27.8412
27.8277
27.8118
27.7936
27.7728
27.7496
27.7236
27.695
27.6635
27.629
27.5915
27.5506
27.5064
27.4586
27.4069
27.3514
27.2918
27.2278
27.1594
27.0863
27.0082
26.9251
26.8367
26.7428
26.6432
26.5377
26.4263
26.3085
26.1843
26.0535
25.916
25.7715
25.6201
25.4614
25.2955
27.8723
27.8703
27.8659
27.8593
27.8503
27.8391
27.8255
27.8096
27.7912
27.7704
27.747
27.721
27.6922
27.6607
27.6261
27.5883
27.5474
27.5029
27.455
27.4032
27.3475
27.2877
27.2235
27.1549
27.0816
27.0034
26.9201
26.8314
26.7374
26.6377
26.5319
26.4203
26.3024
26.178
26.0471
25.9094
25.7649
25.6133
25.4545
25.2886
27.8713
27.8692
27.8649
27.8583
27.8493
27.838
27.8244
27.8084
27.7901
27.7692
27.7458
27.7197
27.6908
27.6592
27.6245
27.5867
27.5457
27.5012
27.4531
27.4013
27.3455
27.2857
27.2213
27.1526
27.0792
27.0009
26.9175
26.8288
26.7346
26.6348
26.529
26.4173
26.2993
26.1748
26.0439
25.9061
25.7615
25.6099
25.451
25.2851
39.6193
39.1248
37.2975
35.3207
33.6294
32.2935
31.2361
30.3935
29.6778
29.0666
28.517
28.0271
27.5656
27.1327
26.6976
26.279
25.8378
25.4152
24.9629
24.5312
24.0742
23.633
23.1774
22.7279
22.2749
21.8157
21.3634
20.8924
20.4328
19.9455
19.4708
18.9613
18.4761
17.9256
17.4456
16.8287
16.3556
15.6862
15.1788
14.5135
13.9129
13.2765
12.5886
11.9393
11.1853
10.5414
9.65014
9.09174
8.06124
7.49023
6.50972
5.77555
4.93563
4.0502
3.48218
2.29834
2.06832
0.878265
0.528434
-0.125276
-0.920148
-0.693559
-1.91849
-1.51882
-1.86757
-2.508
-1.6105
-2.56852
-2.20323
-1.47966
-2.2796
-1.3503
-0.96845
-1.59338
-0.882083
-0.689706
-1.0029
-0.494162
-0.00681784
-0.00378926
37.6363
37.5656
36.671
35.2149
33.6719
32.3074
31.1825
30.2986
29.5669
28.9783
28.4321
27.9735
27.499
27.093
26.6332
26.243
25.7736
25.3802
24.9017
24.4943
24.0213
23.5911
23.1377
22.6778
22.2487
21.7565
21.3426
20.8271
20.4082
19.8813
19.4465
18.8969
18.4612
17.8588
17.4332
16.7769
16.326
15.6727
15.1168
14.5387
13.8412
13.3078
12.5243
11.9793
11.1172
10.5922
9.60629
9.09657
8.11688
7.41627
6.65292
5.67859
5.10732
3.95123
3.59758
2.35134
1.99936
1.16881
0.328576
0.17574
-1.03204
-0.689809
-1.55287
-1.87182
-1.47557
-2.54763
-1.77066
-2.03177
-2.66912
-1.40989
-1.89722
-1.81534
-0.720703
-1.36254
-1.25794
-0.485687
-0.82688
-0.703138
-0.00575074
0.0606161
36.7611
36.8295
36.2914
35.1967
33.811
32.4473
31.2536
30.3001
29.5222
28.9196
28.3772
27.9234
27.4599
27.0476
26.6003
26.192
25.7425
25.322
24.8725
24.4316
23.9936
23.5286
23.1072
22.6176
22.2089
21.7017
21.29
20.7787
20.3467
19.8367
19.3831
18.8552
18.3933
17.8319
17.3453
16.778
16.2188
15.684
15.0237
14.5236
13.7962
13.2579
12.5183
11.9261
11.1419
10.5093
9.71381
8.97206
8.2598
7.35487
6.72506
5.75503
5.13501
4.17253
3.52427
2.73384
1.92552
1.42088
0.520921
0.241326
-0.494842
-0.864727
-1.10878
-1.70814
-1.51395
-1.88508
-2.04894
-1.77685
-2.12289
-1.78452
-1.46594
-1.60092
-1.09611
-0.969497
-1.18648
-0.785663
-0.562723
-0.597844
-0.232273
0.0274429
36.0635
36.135
35.7185
34.8736
33.6777
32.4295
31.2427
30.2639
29.4461
28.8176
28.2754
27.8174
27.3777
26.9577
26.5385
26.1091
25.6911
25.2377
24.8247
24.3463
23.9441
23.4491
23.0498
22.5505
22.1388
21.6484
21.2086
20.7328
20.2616
19.7897
19.2988
18.8098
18.3039
17.7966
17.2479
16.7504
16.1328
15.6445
14.976
14.4541
13.7816
13.1727
12.5212
11.8475
11.1628
10.4415
9.7667
8.93512
8.30277
7.40044
6.72167
5.9036
5.12979
4.36818
3.56044
2.95254
2.05403
1.53061
0.857931
0.309575
-0.1618
-0.759224
-0.917988
-1.31952
-1.50954
-1.55232
-1.89627
-1.7579
-1.75515
-1.8134
-1.40413
-1.32706
-1.21596
-0.923014
-0.944937
-0.885463
-0.540936
-0.444569
-0.320821
-0.0260811
35.4607
35.5057
35.1702
34.4907
33.49
32.3662
31.2454
30.2578
29.4292
28.7567
28.21
27.7298
27.3075
26.8793
26.4823
26.0437
25.6424
25.1784
24.7738
24.2913
23.8856
23.4013
22.9826
22.511
22.0654
21.6125
21.1361
20.692
20.195
19.7406
19.2354
18.7591
18.2376
17.7486
17.1869
16.6959
16.0945
15.5777
14.9643
14.3797
13.7775
13.1165
12.5067
11.8102
11.1585
10.4277
9.76987
8.97387
8.29324
7.5012
6.7332
6.01207
5.19513
4.49808
3.6959
3.06341
2.29075
1.65235
1.10226
0.482334
0.0458272
-0.457318
-0.762973
-1.03932
-1.3301
-1.39994
-1.57461
-1.64364
-1.54395
-1.57766
-1.37594
-1.17005
-1.10111
-0.939971
-0.815594
-0.789513
-0.583027
-0.377699
-0.283398
-0.0554384
34.9344
34.9444
34.6709
34.0966
33.2655
32.2578
31.2271
30.2501
29.4246
28.7162
28.1528
27.6524
27.2287
26.8003
26.4107
25.9781
25.5786
25.124
24.7091
24.2439
23.8148
23.3579
22.9082
22.4673
21.9934
21.5622
21.0727
20.6332
20.1395
19.678
19.1812
18.6984
18.182
17.6882
17.1401
16.6273
16.0636
15.5056
14.9385
14.3217
13.7451
13.085
12.4703
11.7954
11.1377
10.4324
9.75137
9.0182
8.28917
7.56774
6.78188
6.0794
5.29777
4.58985
3.84686
3.16297
2.49319
1.81766
1.28103
0.70575
0.230039
-0.198535
-0.575874
-0.834527
-1.08598
-1.2427
-1.33791
-1.4627
-1.4229
-1.38422
-1.28673
-1.09624
-0.979774