/*--------------------------------*- C++ -*----------------------------------*\
| =========                 |                                                 |
| \\      /  F ield         | OpenFOAM: The Open Source CFD Toolbox           |
|  \\    /   O peration     | Version:  v2012                                 |
|   \\  /    A nd           | Website:  www.openfoam.com                      |
|    \\/     M anipulation  |                                                 |
\*---------------------------------------------------------------------------*/
FoamFile
{
    version     2.0;
    format      ascii;
    class       surfaceScalarField;
    location    "0.15";
    object      phi;
}
// * * * * * * * * * * * * * * * * * * * * * * * * * * * * * * * * * * * * * //

dimensions      [0 3 -1 0 0 0 0];
oriented        oriented;


internalField   nonuniform List<scalar> 
19000
(
0.000432994
5.42683e-09
0.000433059
-6.5052e-08
0.000433022
3.68863e-08
0.000433055
-3.31015e-08
0.000432989
6.60104e-08
0.000433026
-3.71854e-08
0.000432965
6.11354e-08
0.00043302
-5.53061e-08
0.00043296
6.09227e-08
0.000433021
-6.12423e-08
0.000432951
6.94572e-08
0.000433017
-6.60956e-08
0.000432937
8.04586e-08
0.000433008
-7.14256e-08
0.000432917
9.09555e-08
0.000432995
-7.7714e-08
0.000432894
1.00999e-07
0.000432978
-8.36254e-08
0.000432867
1.10958e-07
0.000432955
-8.8157e-08
0.000432835
1.20418e-07
0.000432925
-9.09361e-08
0.000432797
1.28938e-07
0.000432888
-9.1555e-08
0.000432751
1.36979e-07
0.000432841
-8.96497e-08
0.000432696
1.44753e-07
0.000432781
-8.47463e-08
0.000432627
1.53317e-07
0.000432705
-7.73585e-08
0.000432541
1.63335e-07
0.000432609
-6.72584e-08
0.000432433
1.75389e-07
0.000432491
-5.73525e-08
0.000432294
1.9674e-07
0.000432328
-3.39988e-08
0.000432048
2.80308e-07
0.000431875
1.72401e-07
0.000430992
8.83295e-07
1.40819e-06
0.000429584
0.000436786
3.46713e-08
0.000436813
-9.26557e-08
0.000436794
5.60986e-08
0.000436822
-6.13381e-08
0.000436796
9.21813e-08
0.000436816
-5.67383e-08
0.000436786
9.14206e-08
0.000436804
-7.37786e-08
0.000436777
8.8021e-08
0.000436798
-8.21721e-08
0.000436771
9.62965e-08
0.00043679
-8.45848e-08
0.000436762
1.08124e-07
0.000436777
-8.63886e-08
0.000436748
1.19322e-07
0.00043676
-8.88769e-08
0.000436731
1.29503e-07
0.000436738
-9.05348e-08
0.00043671
1.3931e-07
0.000436711
-8.95654e-08
0.000436683
1.48126e-07
0.000436677
-8.4873e-08
0.000436651
1.55081e-07
0.000436635
-7.56526e-08
0.000436611
1.61217e-07
0.000436583
-6.16511e-08
0.000436561
1.67148e-07
0.000436518
-4.19165e-08
0.000436497
1.74481e-07
0.000436436
-1.67499e-08
0.000436416
1.83877e-07
0.000436331
1.70996e-08
0.000436309
1.97862e-07
0.000436186
6.57546e-08
0.00043613
2.5226e-07
0.000435907
1.8856e-07
0.000435733
4.54584e-07
0.000435295
6.10452e-07
0.000434991
1.18792e-06
1.78104e-06
0.000434618
0.000440645
5.4188e-08
0.000440645
-9.27021e-08
0.000440638
6.32525e-08
0.000440649
-7.23258e-08
0.000440649
9.16869e-08
0.000440651
-5.86532e-08
0.000440647
9.54224e-08
0.000440639
-6.53349e-08
0.000440638
8.87787e-08
0.000440626
-7.01167e-08
0.000440631
9.12914e-08
0.000440614
-6.73831e-08
0.000440623
9.86726e-08
0.000440599
-6.23808e-08
0.000440613
1.06171e-07
0.000440581
-5.71457e-08
0.000440598
1.12376e-07
0.000440558
-5.03889e-08
0.000440579
1.1768e-07
0.00044053
-3.98891e-08
0.000440556
1.21799e-07
0.000440496
-2.43737e-08
0.000440526
1.24468e-07
0.000440454
-3.38867e-09
0.000440487
1.27614e-07
0.000440403
2.2863e-08
0.000440438
1.32603e-07
0.00044034
5.58671e-08
0.000440373
1.4133e-07
0.000440261
9.56085e-08
0.000440287
1.57014e-07
0.000440156
1.48279e-07
0.000440165
1.89383e-07
0.000439995
2.35555e-07
0.00043996
2.87348e-07
0.000439709
4.39531e-07
0.000439592
5.71208e-07
0.000439244
9.58776e-07
0.00043913
1.30188e-06
2.09497e-06
0.000438816
0.000444544
5.86434e-08
0.00044453
-7.93726e-08
0.000444532
6.1433e-08
0.000444527
-6.72251e-08
0.000444538
8.05793e-08
0.000444531
-5.17509e-08
0.000444539
8.70813e-08
0.000444523
-4.90574e-08
0.00044453
8.24581e-08
0.00044451
-5.03539e-08
0.000444518
8.28888e-08
0.000444497
-4.59397e-08
0.000444507
8.85151e-08
0.000444483
-3.83297e-08
0.000444494
9.53536e-08
0.000444466
-2.90437e-08
0.000444477
1.0058e-07
0.000444443
-1.60852e-08
0.000444457
1.03285e-07
0.000444415
2.55282e-09
0.000444433
1.03646e-07
0.000444381
2.80697e-08
0.000444403
1.02319e-07
0.000444339
6.09385e-08
0.000444364
1.01811e-07
0.000444287
1.00126e-07
0.000444314
1.05472e-07
0.000444224
1.45841e-07
0.000444248
1.17478e-07
0.000444145
1.98879e-07
0.000444158
1.43869e-07
0.000444037
2.68856e-07
0.000444025
2.02056e-07
0.000443871
3.89673e-07
0.000443813
3.45104e-07
0.000443609
6.4292e-07
0.000443483
6.97652e-07
0.000443256
1.18568e-06
0.000443102
1.45553e-06
2.25566e-06
0.000442942
0.00044847
5.47604e-08
0.000448453
-6.30048e-08
0.000448461
5.39665e-08
0.000448446
-5.25886e-08
0.00044846
6.62037e-08
0.000448447
-3.84176e-08
0.000448462
7.26014e-08
0.000448443
-3.04323e-08
0.000448454
7.16235e-08
0.00044843
-2.68349e-08
0.000448441
7.17871e-08
0.000448416
-2.06511e-08
0.000448428
7.6216e-08
0.000448401
-1.10115e-08
0.000448414
8.21953e-08
0.000448383
1.75791e-09
0.000448397
8.65318e-08
0.000448361
2.07576e-08
0.000448377
8.72561e-08
0.000448332
4.70219e-08
0.000448351
8.479e-08
0.000448298
8.1279e-08
0.000448319
8.14443e-08
0.000448256
1.23162e-07
0.000448278
8.06693e-08
0.000448206
1.71231e-07
0.000448224
8.74332e-08
0.000448145
2.25165e-07
0.000448155
1.07954e-07
0.000448066
2.87282e-07
0.000448059
1.51201e-07
0.000447957
3.70401e-07
0.000447919
2.40953e-07
0.000447796
5.1222e-07
0.000447708
4.32593e-07
0.000447561
7.90789e-07
0.000447417
8.41532e-07
0.000447269
1.3332e-06
0.000447107
1.61793e-06
2.31684e-06
0.000447046
0.000452424
4.87874e-08
0.000452416
-5.48658e-08
0.000452417
5.30267e-08
0.000452405
-4.11574e-08
0.000452412
5.95208e-08
0.000452401
-2.76263e-08
0.000452411
6.22094e-08
0.000452397
-1.59593e-08
0.000452407
6.18109e-08
0.000452385
-5.23306e-09
0.000452396
6.06327e-08
0.000452369
6.38377e-09
0.000452384
6.12567e-08
0.000452352
2.16629e-08
0.000452371
6.26805e-08
0.000452332
4.10188e-08
0.000452355
6.35049e-08
0.000452309
6.70372e-08
0.000452333
6.25141e-08
0.000452281
9.93498e-08
0.000452305
6.04433e-08
0.000452249
1.3809e-07
0.000452269
6.04765e-08
0.00045221
1.82405e-07
0.000452224
6.69846e-08
0.000452164
2.31037e-07
0.000452166
8.59207e-08
0.000452107
2.83897e-07
0.00045209
1.25192e-07
0.000452032
3.4541e-07
0.000451987
1.95595e-07
0.000451926
4.31933e-07
0.000451843
3.23557e-07
0.000451772
5.83165e-07
0.00045164
5.64462e-07
0.000451559
8.72039e-07
0.000451386
1.01401e-06
0.000451309
1.41051e-06
0.000451142
1.78485e-06
2.31321e-06
0.000451146
0.000456413
4.02599e-08
0.000456404
-4.60247e-08
0.00045641
4.72506e-08
0.000456394
-2.52717e-08
0.000456403
5.05059e-08
0.000456386
-9.9926e-09
0.000456401
4.68962e-08
0.00045638
4.80753e-09
0.000456398
4.42562e-08
0.00045637
2.2845e-08
0.000456389
4.17471e-08
0.000456354
4.0856e-08
0.000456376
3.94399e-08
0.000456336
6.12072e-08
0.000456361
3.80148e-08
0.000456317
8.47972e-08
0.000456343
3.79326e-08
0.000456296
1.1395e-07
0.000456319
3.97263e-08
0.000456271
1.47005e-07
0.000456287
4.42309e-08
0.000456242
1.83625e-07
0.000456247
5.48024e-08
0.000456207
2.22926e-07
0.000456198
7.61486e-08
0.000456164
2.64779e-07
0.000456136
1.14251e-07
0.000456109
3.10802e-07
0.000456057
1.77202e-07
0.000456034
3.68268e-07
0.000455953
2.76683e-07
0.000455928
4.56523e-07
0.000455812
4.39891e-07
0.000455779
6.15834e-07
0.000455625
7.18468e-07
0.000455582
9.15409e-07
0.000455408
1.1879e-06
0.000455367
1.45193e-06
0.000455219
1.93286e-06
2.29511e-06
0.000455237
0.00046044
2.71166e-08
0.000460423
-2.93765e-08
0.00046044
3.04707e-08
0.000460415
-1.62308e-10
0.000460434
3.16031e-08
0.000460405
1.94234e-08
0.000460429
2.26582e-08
0.000460397
3.61276e-08
0.000460425
1.70107e-08
0.000460389
5.83994e-08
0.000460415
1.59526e-08
0.000460376
7.97607e-08
0.0004604
1.5594e-08
0.000460361
1.00305e-07
0.000460381
1.75214e-08
0.000460345
1.2155e-07
0.000460359
2.35943e-08
0.000460327
1.46264e-07
0.000460331
3.51992e-08
0.000460305
1.73249e-07
0.000460296
5.25973e-08
0.000460278
2.02267e-07
0.000460254
7.8317e-08
0.000460244
2.33183e-07
0.000460204
1.16659e-07
0.000460201
2.67495e-07
0.000460142
1.73339e-07
0.000460144
3.08914e-07
0.000460065
2.56271e-07
0.000460066
3.6731e-07
0.000459965
3.77608e-07
0.000459957
4.64084e-07
0.000459833
5.63818e-07
0.00045981
6.39338e-07
0.000459667
8.61481e-07
0.000459625
9.56962e-07
0.000459482
1.33086e-06
0.000459439
1.49542e-06
0.000459335
2.03686e-06
2.30066e-06
0.000459329
0.000464502
9.5176e-09
0.000464474
-8.69304e-10
0.000464503
1.51633e-09
0.000464472
3.06962e-08
0.000464498
5.09214e-09
0.000464463
5.47149e-08
0.000464489
-3.60661e-09
0.000464456
6.94589e-08
0.000464482
-9.07151e-09
0.000464451
8.96567e-08
0.00046447
-3.54877e-09
0.000464441
1.0865e-07
0.000464452
4.67056e-09
0.000464429
1.23392e-07
0.00046443
1.63043e-08
0.000464415
1.36688e-07
0.000464405
3.36739e-08
0.000464399
1.52794e-07
0.000464376
5.77955e-08
0.000464377
1.71975e-07
0.000464341
8.84168e-08
0.000464349
1.94312e-07
0.000464301
1.27183e-07
0.000464313
2.20469e-07
0.000464252
1.77708e-07
0.000464266
2.53341e-07
0.000464194
2.458e-07
0.000464204
2.98319e-07
0.000464121
3.39514e-07
0.000464122
3.66867e-07
0.000464028
4.7174e-07
0.000464011
4.80933e-07
0.000463906
6.68219e-07
0.000463866
6.79251e-07
0.000463758
9.70156e-07
0.000463696
1.01843e-06
0.000463599
1.42791e-06
0.000463535
1.55974e-06
0.000463482
2.08987e-06
2.33865e-06
0.000463444
0.000468597
-9.53105e-09
0.000468562
3.44012e-08
0.000468593
-2.99214e-08
0.000468567
5.66447e-08
0.000468592
-1.98933e-08
0.000468564
8.30817e-08
0.000468579
-1.91878e-08
0.000468557
9.12694e-08
0.000468568
-1.95121e-08
0.000468555
1.02685e-07
0.000468555
-3.54538e-09
0.000468548
1.15131e-07
0.000468536
1.72062e-08
0.000468537
1.2219e-07
0.000468514
3.95254e-08
0.000468523
1.27791e-07
0.000468489
6.70766e-08
0.000468504
1.37636e-07
0.000468462
1.00358e-07
0.000468481
1.53204e-07
0.00046843
1.38885e-07
0.000468449
1.75031e-07
0.000468393
1.83727e-07
0.000468409
2.04214e-07
0.000468349
2.38199e-07
0.000468358
2.442e-07
0.000468295
3.09056e-07
0.000468292
3.00945e-07
0.000468226
4.05498e-07
0.000468207
3.86087e-07
0.000468137
5.41507e-07
0.000468097
5.21171e-07
0.000468023
7.41705e-07
0.00046796
7.4282e-07
0.000467888
1.04187e-06
0.000467806
1.10016e-06
0.000467749
1.48517e-06
0.000467668
1.64072e-06
0.000467652
2.10612e-06
2.39355e-06
0.000467597
0.000472722
-2.40962e-08
0.000472693
6.307e-08
0.000472711
-4.80301e-08
0.000472702
6.6014e-08
0.000472714
-3.23996e-08
0.000472705
9.20799e-08
0.000472701
-1.45946e-08
0.000472699
9.34889e-08
0.000472687
-7.54714e-09
0.000472696
9.34652e-08
0.000472675
1.74066e-08
0.00047269
1.00146e-07
0.000472658
4.90399e-08
0.000472677
1.03175e-07
0.000472638
7.82123e-08
0.00047266
1.05929e-07
0.000472617
1.10225e-07
0.000472639
1.15995e-07
0.000472593
1.45772e-07
0.000472611
1.35087e-07
0.000472565
1.84765e-07
0.000472577
1.6374e-07
0.000472532
2.28595e-07
0.000472533
2.0264e-07
0.000472491
2.81088e-07
0.00047248
2.54705e-07
0.000472438
3.50709e-07
0.000472414
3.2582e-07
0.000472371
4.47895e-07
0.00047233
4.27559e-07
0.000472284
5.86843e-07
0.000472224
5.81246e-07
0.000472176
7.90084e-07
0.000472098
8.21048e-07
0.000472051
1.08883e-06
0.000471961
1.18949e-06
0.000471927
1.51933e-06
0.000471844
1.72357e-06
0.000471843
2.10718e-06
2.44419e-06
0.000471793
0.000476878
-2.94371e-08
0.000476868
7.29735e-08
0.000476864
-4.33563e-08
0.000476873
5.69341e-08
0.000476868
-2.76827e-08
0.000476881
7.87306e-08
0.000476859
8.22637e-09
0.000476873
7.86887e-08
0.000476844
2.21008e-08
0.000476867
7.00928e-08
0.000476835
4.94667e-08
0.00047686
7.53464e-08
0.000476823
8.63463e-08
0.000476845
8.09864e-08
0.000476806
1.1678e-07
0.000476825
8.71441e-08
0.000476788
1.4674e-07
0.000476801
1.03599e-07
0.000476768
1.7865e-07
0.000476771
1.31705e-07
0.000476743
2.13277e-07
0.000476735
1.71153e-07
0.000476711
2.53158e-07
0.000476692
2.2149e-07
0.00047667
3.03113e-07
0.00047664
2.84778e-07
0.000476617
3.73218e-07
0.000476576
3.67321e-07
0.00047655
4.74043e-07
0.000476496
4.81308e-07
0.000476464
6.18606e-07
0.000476397
6.48249e-07
0.000476361
8.26716e-07
0.000476282
9.0005e-07
0.000476245
1.1257e-06
0.000476161
1.27311e-06
0.000476135
1.54589e-06
0.000476063
1.79514e-06
0.000476061
2.10908e-06
2.4777e-06
0.000476028
0.000481071
-2.51471e-08
0.000481082
6.17954e-08
0.000481058
-1.94334e-08
0.000481078
3.76957e-08
0.000481059
-9.40555e-09
0.000481086
5.17299e-08
0.000481058
3.66438e-08
0.000481078
5.84053e-08
0.000481044
5.61789e-08
0.000481067
4.73578e-08
0.000481037
7.92227e-08
0.000481058
5.44656e-08
0.000481029
1.15168e-07
0.000481042
6.85784e-08
0.000481016
1.42875e-07
0.00048102
8.27454e-08
0.000481
1.67146e-07
0.000480995
1.07942e-07
0.00048098
1.93392e-07
0.000480966
1.46102e-07
0.000480956
2.23579e-07
0.000480931
1.95558e-07
0.000480923
2.61305e-07
0.00048089
2.54405e-07
0.000480881
3.12291e-07
0.000480841
3.2445e-07
0.000480827
3.87311e-07
0.000480781
4.13494e-07
0.00048076
4.95613e-07
0.000480706
5.35129e-07
0.000480676
6.48045e-07
0.000480614
7.10942e-07
0.000480578
8.61916e-07
0.000480508
9.70415e-07
0.000480472
1.16158e-06
0.000480402
1.34362e-06
0.000480374
1.57347e-06
0.00048032
1.84926e-06
0.000480311
2.1184e-06
2.49169e-06
0.000480297
0.000485305
-1.4891e-08
0.000485329
3.80401e-08
0.000485299
9.6235e-09
0.000485316
2.07207e-08
0.000485293
1.36677e-08
0.000485321
2.45834e-08
0.000485298
5.86664e-08
0.000485314
4.25939e-08
0.000485288
8.27817e-08
0.000485299
3.65233e-08
0.00048528
9.77771e-08
0.000485288
4.60983e-08
0.000485275
1.28887e-07
0.000485273
7.05159e-08
0.000485262
1.53445e-07
0.000485251
9.41583e-08
0.000485246
1.7212e-07
0.000485227
1.26831e-07
0.000485226
1.94e-07
0.0004852
1.72447e-07
0.0004852
2.23103e-07
0.000485168
2.27979e-07
0.000485166
2.63132e-07
0.00048513
2.90383e-07
0.000485123
3.19921e-07
0.000485085
3.62359e-07
0.000485068
4.0342e-07
0.000485028
4.5448e-07
0.000485002
5.20747e-07
0.000484956
5.81755e-07
0.000484923
6.80707e-07
0.000484869
7.64714e-07
0.000484832
8.99187e-07
0.000484773
1.02958e-06
0.000484735
1.19908e-06
0.000484679
1.39962e-06
0.000484648
1.60435e-06
0.000484611
1.88628e-06
0.000484595
2.13444e-06
2.49044e-06
0.000484597
0.000489581
-3.67907e-09
0.000489605
1.37138e-08
0.000489584
3.09131e-08
0.000489591
1.29833e-08
0.000489572
3.34129e-08
0.000489587
8.99911e-09
0.000489578
6.74853e-08
0.000489585
3.58775e-08
0.000489572
9.64489e-08
0.000489568
4.02668e-08
0.000489561
1.04613e-07
0.000489556
5.101e-08
0.000489556
1.29144e-07
0.000489543
8.36325e-08
0.000489544
1.52625e-07
0.000489522
1.15778e-07
0.000489525
1.68532e-07
0.000489499
1.52902e-07
0.000489504
1.88991e-07
0.000489475
2.01767e-07
0.000489477
2.21258e-07
0.000489446
2.58806e-07
0.000489441
2.6802e-07
0.000489411
3.20847e-07
0.000489397
3.33512e-07
0.000489367
3.925e-07
0.000489345
4.25889e-07
0.000489312
4.87265e-07
0.000489282
5.50857e-07
0.000489243
6.20585e-07
0.000489207
7.1617e-07
0.000489162
8.10456e-07
0.000489123
9.37585e-07
0.000489074
1.07879e-06
0.000489035
1.23761e-06
0.000488992
1.44271e-06
0.000488959
1.63749e-06
0.000488936
1.90987e-06
0.000488917
2.15312e-06
2.4805e-06
0.000488927
0.000493899
4.30724e-09
0.000493914
-1.93652e-09
0.000493906
3.93958e-08
0.000493905
1.36717e-08
0.000493892
4.59359e-08
0.000493893
8.28188e-09
0.000493895
6.55902e-08
0.000493894
3.65732e-08
0.000493892
9.86747e-08
0.000493879
5.34089e-08
0.000493879
1.04846e-07
0.000493865
6.46786e-08
0.000493872
1.22462e-07
0.000493854
1.01434e-07
0.00049386
1.4702e-07
0.000493835
1.4015e-07
0.00049384
1.63933e-07
0.000493814
1.78814e-07
0.000493817
1.86193e-07
0.000493792
2.26835e-07
0.000493788
2.24754e-07
0.000493765
2.82222e-07
0.000493752
2.80557e-07
0.00049373
3.42728e-07
0.000493709
3.54646e-07
0.000493687
4.14901e-07
0.000493659
4.53434e-07
0.000493632
5.14084e-07
0.0004936
5.83007e-07
0.000493566
6.54694e-07
0.000493531
7.51499e-07
0.00049349
8.50887e-07
0.000493453
9.75138e-07
0.000493412
1.12012e-06
0.000493373
1.27576e-06
0.00049334
1.47559e-06
0.000493307
1.67054e-06
0.000493293
1.9246e-06
0.000493276
2.17015e-06
2.46743e-06
0.000493289
0.000498256
7.48276e-09
0.000498259
-5.50158e-09
0.000498263
3.63832e-08
0.000498257
1.90287e-08
0.000498252
5.08047e-08
0.000498242
1.81407e-08
0.000498248
6.00489e-08
0.000498243
4.11502e-08
0.000498248
9.4052e-08
0.000498233
6.87048e-08
0.000498234
1.03878e-07
0.000498217
8.17267e-08
0.000498224
1.15551e-07
0.000498207
1.18397e-07
0.000498212
1.4189e-07
0.00049819
1.61546e-07
0.000498191
1.63344e-07
0.00049817
1.99944e-07
0.000498166
1.89983e-07
0.000498148
2.44519e-07
0.000498137
2.35654e-07
0.000498122
2.97529e-07
0.000498103
2.99929e-07
0.000498087
3.58097e-07
0.000498062
3.80317e-07
0.000498043
4.33221e-07
0.000498015
4.82237e-07
0.00049799
5.38599e-07
0.000497959
6.13963e-07
0.000497927
6.86622e-07
0.000497894
7.84959e-07
0.000497857
8.87361e-07
0.000497821
1.01116e-06
0.000497786
1.15501e-06
0.00049775
1.31225e-06
0.000497724
1.50136e-06
0.000497694
1.70057e-06
0.000497684
1.93497e-06
0.000497672
2.18206e-06
2.45494e-06
0.000497684
0.00050265
7.23629e-09
0.000502646
-9.29402e-10
0.000502653
2.86738e-08
0.000502648
2.42294e-08
0.000502648
5.09671e-08
0.000502635
3.09864e-08
0.000502638
5.69335e-08
0.000502632
4.71754e-08
0.000502639
8.70623e-08
0.000502627
8.14177e-08
0.000502627
1.03866e-07
0.00050261
9.87388e-08
0.000502613
1.12169e-07
0.000502599
1.3219e-07
0.000502601
1.39856e-07
0.000502586
1.77206e-07
0.00050258
1.68506e-07
0.000502566
2.14731e-07
0.000502555
2.0107e-07
0.000502544
2.55368e-07
0.000502527
2.52459e-07
0.000502517
3.07353e-07
0.000502495
3.22463e-07
0.000502482
3.71003e-07
0.000502456
4.06134e-07
0.000502438
4.51512e-07
0.000502411
5.08929e-07
0.000502386
5.63336e-07
0.000502358
6.42182e-07
0.000502327
7.17026e-07
0.000502296
8.16504e-07
0.000502263
9.19849e-07
0.000502229
1.04577e-06
0.000502199
1.18449e-06
0.000502166
1.34595e-06
0.000502144
1.52279e-06
0.000502119
1.72538e-06
0.00050211
1.94401e-06
0.000502105
2.18727e-06
2.44441e-06
0.000502116
0.000507081
5.68044e-09
0.000507074
5.92763e-09
0.00050708
2.26839e-08
0.000507078
2.6643e-08
0.000507079
4.95053e-08
0.000507069
4.11897e-08
0.000507068
5.82326e-08
0.000507062
5.35209e-08
0.000507067
8.14119e-08
0.000507059
8.97956e-08
0.000507058
1.04796e-07
0.000507043
1.13669e-07
0.000507042
1.13504e-07
0.000507031
1.42701e-07
0.000507029
1.41737e-07
0.00050702
1.86867e-07
0.00050701
1.78554e-07
0.000507
2.24149e-07
0.000506984
2.17287e-07
0.000506977
2.62437e-07
0.000506958
2.71749e-07
0.00050695
3.15465e-07
0.000506928
3.44281e-07
0.000506914
3.84665e-07
0.000506891
4.29282e-07
0.000506871
4.71579e-07
0.000506847
5.32624e-07
0.000506822
5.88428e-07
0.000506796
6.68114e-07
0.000506768
7.45242e-07
0.000506738
8.46576e-07
0.000506709
9.48483e-07
0.000506677
1.07836e-06
0.000506651
1.21022e-06
0.000506621
1.37533e-06
0.000506602
1.54218e-06
0.000506584
1.74385e-06
0.000506575
1.95277e-06
0.000506576
2.18643e-06
2.4348e-06
0.000506585
0.00051155
4.55133e-09
0.000511545
1.09275e-08
0.000511546
2.10763e-08
0.000511546
2.67108e-08
0.000511548
4.78535e-08
0.000511542
4.74428e-08
0.000511538
6.19549e-08
0.000511531
6.03779e-08
0.000511534
7.85661e-08
0.000511529
9.48271e-08
0.000511528
1.05955e-07
0.000511516
1.25243e-07
0.00051151
1.19255e-07
0.000511503
1.50421e-07
0.000511497
1.47701e-07
0.000511492
1.91584e-07
0.000511479
1.91454e-07
0.000511473
2.30306e-07
0.000511455
2.3531e-07
0.000511448
2.69268e-07
0.00051143
2.90154e-07
0.00051142
3.25033e-07
0.000511401
3.62884e-07
0.000511386
4.00415e-07
0.000511366
4.49139e-07
0.000511344
4.92881e-07
0.000511323
5.54347e-07
0.000511299
6.1252e-07
0.000511274
6.93057e-07
0.000511248
7.70459e-07
0.00051122
8.75308e-07
0.000511194
9.73951e-07
0.000511165
1.10776e-06
0.000511141
1.23406e-06
0.000511117
1.3991e-06
0.000511098
1.56097e-06
0.000511086
1.75593e-06
0.000511078
1.96104e-06
0.000511083
2.18114e-06
2.42428e-06
0.000511094
0.000516056
4.6612e-09
0.000516055
1.25189e-08
0.000516053
2.33163e-08
0.000516053
2.61254e-08
0.000516054
4.66889e-08
0.000516051
5.07148e-08
0.000516048
6.54019e-08
0.00051604
6.79518e-08
0.00051604
7.82813e-08
0.000516037
9.85197e-08
0.000516036
1.07082e-07
0.000516028
1.33082e-07
0.000516019
1.27912e-07
0.000516013
1.56266e-07
0.000516004
1.56948e-07
0.000516002
1.93562e-07
0.000515989
2.04705e-07
0.000515983
2.35574e-07
0.000515967
2.52118e-07
0.000515958
2.7813e-07
0.000515942
3.05936e-07
0.00051593
3.37224e-07
0.000515915
3.78047e-07
0.000515897
4.17543e-07
0.00051588
4.66736e-07
0.000515859
5.1384e-07
0.000515838
5.75421e-07
0.000515816
6.34622e-07
0.000515791
7.17463e-07
0.000515769
7.92958e-07
0.000515742
9.01925e-07
0.000515719
9.97404e-07
0.000515694
1.13294e-06
0.000515671
1.25696e-06
0.000515652
1.41735e-06
0.000515635
1.57889e-06
0.000515627
1.76305e-06
0.000515621
1.96746e-06
0.000515629
2.17332e-06
2.41143e-06
0.000515642
0.000520603
5.74469e-09
0.000520604
1.17376e-08
0.000520601
2.68121e-08
0.0005206
2.67965e-08
0.000520601
4.59184e-08
0.000520599
5.27191e-08
0.000520597
6.73148e-08
0.000520589
7.5405e-08
0.000520587
8.03389e-08
0.000520584
1.01715e-07
0.000520582
1.09003e-07
0.000520578
1.37308e-07
0.000520568
1.37804e-07
0.000520563
1.61133e-07
0.000520552
1.67825e-07
0.00052055
1.95589e-07
0.000520539
2.16059e-07
0.000520533
2.41909e-07
0.000520519
2.6579e-07
0.000520507
2.89607e-07
0.000520494
3.19058e-07
0.00052048
3.5138e-07
0.000520467
3.91196e-07
0.00052045
4.34288e-07
0.000520433
4.83657e-07
0.000520414
5.32961e-07
0.000520393
5.96533e-07
0.000520373
6.54648e-07
0.00052035
7.40782e-07
0.000520329
8.13913e-07
0.000520305
9.25215e-07
0.000520283
1.02001e-06
0.000520262
1.15338e-06
0.00052024
1.27894e-06
0.000520227
1.43118e-06
0.000520211
1.5947e-06
0.000520207
1.7673e-06
0.000520204
1.97037e-06
0.000520212
2.16471e-06
2.39528e-06
0.000520228
0.000525191
7.01829e-09
0.000525192
1.05305e-08
0.00052519
2.92327e-08
0.000525187
2.95465e-08
0.000525188
4.52918e-08
0.000525185
5.48651e-08
0.000525185
6.78216e-08
0.000525179
8.15516e-08
0.000525175
8.4505e-08
0.000525172
1.04446e-07
0.000525168
1.12582e-07
0.000525167
1.38796e-07
0.000525157
1.47489e-07
0.000525153
1.65764e-07
0.000525142
1.78541e-07
0.000525138
1.99647e-07
0.000525129
2.24628e-07
0.000525121
2.49932e-07
0.000525111
2.76111e-07
0.000525098
3.02758e-07
0.000525086
3.30583e-07
0.000525072
3.65968e-07
0.000525059
4.04051e-07
0.000525044
4.49306e-07
0.000525027
5.00694e-07
0.00052501
5.49797e-07
0.000524989
6.17338e-07
0.00052497
6.73242e-07
0.000524949
7.62162e-07
0.000524929
8.34282e-07
0.000524909
9.44709e-07
0.000524887
1.04197e-06
0.000524871
1.16958e-06
0.000524851
1.29923e-06
0.00052484
1.44198e-06
0.000524827
1.60731e-06
0.000524825
1.77011e-06
0.000524826
1.96911e-06
0.000524835
2.15592e-06
2.37587e-06
0.000524854
0.00052982
7.74607e-09
0.00052982
1.04414e-08
0.00052982
2.95429e-08
0.000529815
3.38397e-08
0.000529815
4.50958e-08
0.000529813
5.73876e-08
0.000529813
6.80812e-08
0.000529809
8.55484e-08
0.000529803
9.01644e-08
0.000529801
1.06907e-07
0.000529796
1.17657e-07
0.000529795
1.39277e-07
0.000529787
1.55573e-07
0.000529782
1.71051e-07
0.000529773
1.87638e-07
0.000529766
2.06353e-07
0.00052976
2.3092e-07
0.000529751
2.5901e-07
0.000529742
2.84322e-07
0.000529729
3.15711e-07
0.000529718
3.41962e-07
0.000529704
3.79454e-07
0.000529691
4.1769e-07
0.000529678
4.62313e-07
0.000529661
5.17528e-07
0.000529646
5.65014e-07
0.000529626
6.36665e-07
0.000529608
6.91394e-07
0.00052959
7.80849e-07
0.000529569
8.54446e-07
0.000529553
9.60835e-07
0.000529533
1.06257e-06
0.000529519
1.18289e-06
0.000529502
1.31658e-06
0.000529493
1.45116e-06
0.000529484
1.61604e-06
0.000529482
1.77209e-06
0.000529487
1.96402e-06
0.000529497
2.14647e-06
2.35415e-06
0.000529518
0.00053449
7.59433e-09
0.000534488
1.20227e-08
0.00053449
2.81781e-08
0.000534485
3.81803e-08
0.000534484
4.59213e-08
0.000534482
5.97517e-08
0.000534481
6.9296e-08
0.000534479
8.73733e-08
0.000534473
9.63825e-08
0.00053447
1.09514e-07
0.000534465
1.23274e-07
0.000534463
1.4059e-07
0.000534458
1.61207e-07
0.000534451
1.7746e-07
0.000534444
1.94637e-07
0.000534436
2.15017e-07
0.00053443
2.36217e-07
0.000534421
2.68072e-07
0.000534414
2.9196e-07
0.000534402
3.2694e-07
0.00053439
3.54013e-07
0.000534379
3.91113e-07
0.000534364
4.32158e-07
0.000534353
4.73888e-07
0.000534337
5.33385e-07
0.000534322
5.79462e-07
0.000534305
6.53554e-07
0.000534287
7.09577e-07
0.000534271
7.96674e-07
0.000534252
8.74158e-07
0.000534238
9.74407e-07
0.00053422
1.08098e-06
0.000534208
1.19446e-06
0.000534194
1.3302e-06
0.000534186
1.45946e-06
0.000534181
1.62082e-06
0.00053418
1.77333e-06
0.000534188
1.95582e-06
0.000534199
2.13581e-06
2.33105e-06
0.000534222
0.000539201
6.82345e-09
0.000539198
1.46174e-08
0.0005392
2.65009e-08
0.000539197
4.10858e-08
0.000539195
4.80979e-08
0.000539193
6.1555e-08
0.00053919
7.17992e-08
0.00053919
8.79175e-08
0.000539184
1.01933e-07
0.000539181
1.12882e-07
0.000539176
1.28359e-07
0.000539173
1.43784e-07
0.000539169
1.64617e-07
0.000539162
1.84536e-07
0.000539157
2.00234e-07
0.000539147
2.24143e-07
0.000539142
2.41927e-07
0.000539134
2.76113e-07
0.000539126
3.0011e-07
0.000539116
3.36005e-07
0.000539104
3.66508e-07
0.000539094
4.01294e-07
0.000539079
4.46493e-07
0.000539068
4.85083e-07
0.000539054
5.47497e-07
0.00053904
5.93683e-07
0.000539026
6.67778e-07
0.000539008
7.27391e-07
0.000538994
8.10255e-07
0.000538976
8.92549e-07
0.000538964
9.86424e-07
0.000538948
1.09656e-06
0.000538938
1.20487e-06
0.000538928
1.34013e-06
0.000538921
1.46674e-06
0.000538919
1.62226e-06
0.000538919
1.77337e-06
0.00053893
1.94536e-06
0.000538942
2.12353e-06
2.30709e-06
0.000538966
0.000543953
5.97039e-09
0.00054395
1.70454e-08
0.000543951
2.58698e-08
0.00054395
4.20031e-08
0.000543947
5.11896e-08
0.000543945
6.29108e-08
0.000543942
7.50962e-08
0.000543942
8.84708e-08
0.000543938
1.05863e-07
0.000543933
1.17296e-07
0.000543929
1.32362e-07
0.000543924
1.488e-07
0.000543922
1.66814e-07
0.000543915
1.91361e-07
0.00054391
2.05508e-07
0.000543902
2.32361e-07
0.000543895
2.48903e-07
0.000543888
2.82664e-07
0.000543879
3.0913e-07
0.000543872
3.43291e-07
0.00054386
3.78693e-07
0.00054385
4.10785e-07
0.000543837
4.5958e-07
0.000543825
4.96728e-07
0.000543813
5.59478e-07
0.000543799
6.07856e-07
0.000543787
6.79574e-07
0.000543771
7.44125e-07
0.000543759
8.22349e-07
0.000543742
9.08758e-07
0.000543731
9.97691e-07
0.000543719
1.10893e-06
0.000543709
1.21439e-06
0.000543703
1.34667e-06
0.000543697
1.4726e-06
0.000543698
1.62113e-06
0.0005437
1.77156e-06
0.000543712
1.93355e-06
0.000543726
2.10919e-06
2.28273e-06
0.00054375
0.000548746
5.47893e-09
0.000548744
1.84562e-08
0.000548744
2.67559e-08
0.000548744
4.15613e-08
0.000548741
5.41974e-08
0.000548739
6.43828e-08
0.000548736
7.82629e-08
0.000548735
9.00245e-08
0.000548733
1.08027e-07
0.000548728
1.22338e-07
0.000548724
1.35554e-07
0.000548718
1.54663e-07
0.000548716
1.69079e-07
0.00054871
1.97087e-07
0.000548705
2.11185e-07
0.000548698
2.39082e-07
0.00054869
2.57059e-07
0.000548685
2.88063e-07
0.000548675
3.18509e-07
0.000548669
3.49727e-07
0.000548658
3.89798e-07
0.000548648
4.20194e-07
0.000548637
4.70869e-07
0.000548625
5.08847e-07
0.000548615
5.69623e-07
0.000548601
6.21662e-07
0.000548591
6.89532e-07
0.000548576
7.59172e-07
0.000548565
8.33353e-07
0.000548551
9.22475e-07
0.00054854
1.00836e-06
0.000548531
1.11824e-06
0.000548523
1.22292e-06
0.000548519
1.35023e-06
0.000548515
1.47679e-06
0.000548518
1.61782e-06
0.000548522
1.76761e-06
0.000548535
1.92084e-06
0.000548551
2.09263e-06
2.25832e-06
0.000548576
0.000553581
5.5079e-09
0.000553581
1.87254e-08
0.000553579
2.86695e-08
0.00055358
4.09752e-08
0.000553578
5.62381e-08
0.000553576
6.63978e-08
0.000553573
8.06316e-08
0.00055357
9.28805e-08
0.000553569
1.09001e-07
0.000553564
1.27203e-07
0.000553561
1.38578e-07
0.000553556
1.60204e-07
0.000553553
1.72408e-07
0.000553548
2.01295e-07
0.000553542
2.17443e-07
0.000553537
2.44392e-07
0.000553528
2.65706e-07
0.000553523
2.93083e-07
0.000553514
3.27341e-07
0.000553508
3.56274e-07
0.000553498
3.99248e-07
0.000553489
4.29835e-07
0.000553479
4.80316e-07
0.000553467
5.20942e-07
0.000553458
5.78579e-07
0.000553445
6.34501e-07
0.000553436
6.98447e-07
0.000553424
7.7201e-07
0.000553413
8.43492e-07
0.000553402
9.33701e-07
0.000553392
1.01819e-06
0.000553386
1.12504e-06
0.000553378
1.23005e-06
0.000553377
1.35145e-06
0.000553375
1.47899e-06
0.00055338
1.61271e-06
0.000553386
1.76139e-06
0.0005534
1.90731e-06
0.000553418
2.07401e-06
2.23378e-06
0.000553443
0.000558459
5.86943e-09
0.00055846
1.83984e-08
0.000558458
3.06309e-08
0.000558457
4.12492e-08
0.000558457
5.70847e-08
0.000558454
6.89254e-08
0.000558453
8.21553e-08
0.000558449
9.65424e-08
0.000558448
1.09743e-07
0.000558444
1.31215e-07
0.000558441
1.419e-07
0.000558436
1.64734e-07
0.000558432
1.77012e-07
0.000558429
2.0422e-07
0.000558422
2.23954e-07
0.000558418
2.48756e-07
0.00055841
2.74047e-07
0.000558404
2.9833e-07
0.000558397
3.35021e-07
0.00055839
3.63334e-07
0.000558382
4.06962e-07
0.000558372
4.39644e-07
0.000558364
4.88186e-07
0.000558353
5.32471e-07
0.000558344
5.86776e-07
0.000558333
6.45984e-07
0.000558325
7.0686e-07
0.000558314
7.82413e-07
0.000558305
8.52896e-07
0.000558296
9.42443e-07
0.000558287
1.02704e-06
0.000558282
1.12976e-06
0.000558277
1.23541e-06
0.000558278
1.35096e-06
0.000558278
1.47879e-06
0.000558284
1.6063e-06
0.000558293
1.7527e-06
0.000558307
1.89302e-06
0.000558328
2.05356e-06
2.20882e-06
0.000558353
0.000563381
6.20926e-09
0.000563381
1.82522e-08
0.00056338
3.18094e-08
0.000563378
4.26902e-08
0.000563378
5.71306e-08
0.000563376
7.15628e-08
0.000563375
8.32953e-08
0.000563371
1.00133e-07
0.00056337
1.11144e-07
0.000563367
1.34037e-07
0.000563363
1.45653e-07
0.00056336
1.68149e-07
0.000563354
1.82426e-07
0.000563352
2.06589e-07
0.000563346
2.30063e-07
0.000563342
2.52814e-07
0.000563334
2.81407e-07
0.000563329
3.0408e-07
0.000563322
3.41436e-07
0.000563315