/*--------------------------------*- C++ -*----------------------------------*\
| =========                 |                                                 |
| \\      /  F ield         | OpenFOAM: The Open Source CFD Toolbox           |
|  \\    /   O peration     | Version:  v2012                                 |
|   \\  /    A nd           | Website:  www.openfoam.com                      |
|    \\/     M anipulation  |                                                 |
\*---------------------------------------------------------------------------*/
FoamFile
{
    version     2.0;
    format      ascii;
    class       volVectorField;
    location    "0.15";
    object      U;
}
// * * * * * * * * * * * * * * * * * * * * * * * * * * * * * * * * * * * * * //

dimensions      [0 1 -1 0 0 0 0];


internalField   nonuniform List<vector> 
9600
(
(49.7186 -0.00013047 0)
(50.2846 -0.00181314 0)
(49.7132 0.000541458 0)
(50.2873 -0.000821118 0)
(49.7106 0.00152809 0)
(50.2901 -0.000800356 0)
(49.709 0.00158163 0)
(50.2917 -0.001354 0)
(49.7075 0.00158835 0)
(50.2918 -0.00166529 0)
(49.706 0.00187433 0)
(50.2905 -0.00187826 0)
(49.705 0.00225317 0)
(50.2882 -0.00211667 0)
(49.7048 0.00262968 0)
(50.2846 -0.00240494 0)
(49.7051 0.00300217 0)
(50.2794 -0.00270432 0)
(49.7059 0.00337789 0)
(50.2726 -0.00298206 0)
(49.7069 0.00375859 0)
(50.2641 -0.00324608 0)
(49.7077 0.00414218 0)
(50.2544 -0.00349544 0)
(49.7081 0.00454222 0)
(50.2437 -0.00370374 0)
(49.7069 0.00494276 0)
(50.2318 -0.00385509 0)
(49.7032 0.00539419 0)
(50.2187 -0.00396144 0)
(49.6959 0.00590869 0)
(50.2041 -0.00405538 0)
(49.6834 0.00655208 0)
(50.1868 -0.00417319 0)
(49.6635 0.0073363 0)
(50.164 -0.00427343 0)
(49.6319 0.00917735 0)
(50.1301 -0.00156849 0)
(49.5812 0.0202396 0)
(50.0773 0.0243656 0)
(49.9244 0.000794229 0)
(50.0705 -0.0038474 0)
(49.9289 0.00196557 0)
(50.0643 -0.00221124 0)
(49.9347 0.00366963 0)
(50.0579 -0.00207162 0)
(49.9413 0.00369428 0)
(50.0511 -0.00297325 0)
(49.9481 0.00353382 0)
(50.0431 -0.00346211 0)
(49.9547 0.00389927 0)
(50.0338 -0.00367758 0)
(49.9616 0.00444377 0)
(50.0238 -0.00385844 0)
(49.969 0.00494616 0)
(50.0129 -0.00407138 0)
(49.9767 0.00538183 0)
(50.0009 -0.00424275 0)
(49.9842 0.00578159 0)
(49.9879 -0.00431341 0)
(49.9912 0.00615274 0)
(49.9742 -0.0042658 0)
(49.997 0.00645543 0)
(49.9604 -0.00408173 0)
(50.001 0.00669839 0)
(49.9467 -0.00374386 0)
(50.0023 0.00693218 0)
(49.9329 -0.00325393 0)
(50.0001 0.00723336 0)
(49.9185 -0.00261106 0)
(49.994 0.00762293 0)
(49.9028 -0.00173654 0)
(49.9829 0.00821011 0)
(49.8839 -0.000633169 0)
(49.9649 0.00966442 0)
(49.8591 0.001847 0)
(49.9372 0.015002 0)
(49.8248 0.0133514 0)
(49.8989 0.0411778 0)
(49.7842 0.0669258 0)
(50.0099 0.00178693 0)
(49.9858 -0.00361333 0)
(50.0137 0.00250164 0)
(49.9809 -0.00263734 0)
(50.0172 0.003696 0)
(49.9764 -0.0022951 0)
(50.0207 0.00376285 0)
(49.9723 -0.00272835 0)
(50.024 0.00352577 0)
(49.968 -0.00302781 0)
(50.0264 0.00368209 0)
(49.9632 -0.00302877 0)
(50.0283 0.00405949 0)
(49.9584 -0.00295114 0)
(50.0301 0.00444742 0)
(49.9536 -0.00289831 0)
(50.0313 0.00480323 0)
(49.9485 -0.00283471 0)
(50.0317 0.00516299 0)
(49.9434 -0.00268301 0)
(50.0307 0.00549264 0)
(49.9383 -0.00231388 0)
(50.028 0.00574367 0)
(49.9336 -0.00169199 0)
(50.0231 0.00597587 0)
(49.9293 -0.000921409 0)
(50.0155 0.0061869 0)
(49.9246 0.000140821 0)
(50.0047 0.00643991 0)
(49.9189 0.0014703 0)
(49.9906 0.00681125 0)
(49.9111 0.00331462 0)
(49.9724 0.00747221 0)
(49.8994 0.00625063 0)
(49.9489 0.00987563 0)
(49.8813 0.0128358 0)
(49.9187 0.0188774 0)
(49.8557 0.0324045 0)
(49.8832 0.0494885 0)
(49.8281 0.084746 0)
(50.0276 0.00247903 0)
(49.9709 -0.00354919 0)
(50.0289 0.00273838 0)
(49.9688 -0.00298201 0)
(50.0293 0.00346813 0)
(49.967 -0.0024439 0)
(50.0296 0.00365879 0)
(49.9657 -0.00236862 0)
(50.0298 0.00347784 0)
(49.9643 -0.00241073 0)
(50.0291 0.00345184 0)
(49.9624 -0.00221195 0)
(50.0279 0.00364032 0)
(49.9605 -0.00189981 0)
(50.0266 0.00386956 0)
(49.9587 -0.00155558 0)
(50.0247 0.00405722 0)
(49.9566 -0.00114884 0)
(50.022 0.00421852 0)
(49.9542 -0.000594398 0)
(50.0183 0.0043327 0)
(49.9516 0.000232151 0)
(50.0133 0.00439291 0)
(49.9489 0.00134706 0)
(50.0069 0.00450369 0)
(49.9456 0.00260674 0)
(49.9986 0.00474187 0)
(49.9412 0.0041229 0)
(49.9882 0.00521477 0)
(49.9349 0.00590937 0)
(49.9753 0.00611792 0)
(49.9259 0.0082773 0)
(49.9591 0.00792067 0)
(49.9125 0.0123505 0)
(49.9388 0.0124032 0)
(49.8933 0.0212972 0)
(49.9138 0.0250306 0)
(49.8684 0.0430896 0)
(49.8862 0.0565347 0)
(49.8435 0.0897667 0)
(50.021 0.00219611 0)
(49.979 -0.00267265 0)
(50.0212 0.00233979 0)
(49.9783 -0.00233601 0)
(50.0204 0.00284131 0)
(49.9775 -0.00185668 0)
(50.0196 0.00314117 0)
(49.9771 -0.00161361 0)
(50.0188 0.00317103 0)
(49.9764 -0.00156813 0)
(50.0174 0.00321704 0)
(49.9752 -0.00141536 0)
(50.0155 0.003457 0)
(49.9739 -0.00112238 0)
(50.0136 0.00376263 0)
(49.9724 -0.000698239 0)
(50.0112 0.00401003 0)
(49.9706 -9.74757e-05 0)
(50.0082 0.00406938 0)
(49.9683 0.000811455 0)
(50.0045 0.00398176 0)
(49.9655 0.00207329 0)
(49.9999 0.00379522 0)
(49.962 0.00370464 0)
(49.9942 0.00359686 0)
(49.9577 0.00562681 0)
(49.9872 0.00361463 0)
(49.952 0.00779415 0)
(49.9783 0.00406885 0)
(49.9442 0.0103098 0)
(49.9671 0.00524649 0)
(49.9338 0.0135576 0)
(49.9529 0.00799765 0)
(49.9195 0.0187713 0)
(49.9349 0.0144721 0)
(49.9004 0.0292621 0)
(49.9133 0.0297289 0)
(49.8776 0.0513576 0)
(49.8905 0.0616901 0)
(49.8565 0.0934405 0)
(50.0116 0.00200452 0)
(49.9888 -0.00218966 0)
(50.0116 0.00216258 0)
(49.9885 -0.00175732 0)
(50.0105 0.00246095 0)
(49.9879 -0.00131362 0)
(50.0096 0.0026242 0)
(49.9875 -0.000926715 0)
(50.0087 0.00268713 0)
(49.9869 -0.000649835 0)
(50.0073 0.00271164 0)
(49.9857 -0.000325617 0)
(50.0055 0.00282445 0)
(49.9843 0.000158836 0)
(50.0036 0.00298117 0)
(49.9827 0.000820094 0)
(50.0014 0.00309687 0)
(49.9806 0.00170456 0)
(49.9987 0.00305708 0)
(49.978 0.00291801 0)
(49.9953 0.00289269 0)
(49.9747 0.00445411 0)
(49.9911 0.0027372 0)
(49.9706 0.00628736 0)
(49.9861 0.00274432 0)
(49.9657 0.00833668 0)
(49.9799 0.00314435 0)
(49.9592 0.0105885 0)
(49.9718 0.00424512 0)
(49.9509 0.0131575 0)
(49.9614 0.00642425 0)
(49.9402 0.0165724 0)
(49.9481 0.0107008 0)
(49.9262 0.0222736 0)
(49.9315 0.0193267 0)
(49.9084 0.0334274 0)
(49.9119 0.0366226 0)
(49.8884 0.055254 0)
(49.8924 0.0685057 0)
(49.8711 0.0937403 0)
(50.0056 0.00187529 0)
(49.995 -0.00217046 0)
(50.0057 0.00218191 0)
(49.9947 -0.00144352 0)
(50.0047 0.00238808 0)
(49.994 -0.000942118 0)
(50.0038 0.00231063 0)
(49.9936 -0.000390822 0)
(50.003 0.00228759 0)
(49.9929 0.00020919 0)
(50.0017 0.00219686 0)
(49.9915 0.00085351 0)
(50 0.00211151 0)
(49.99 0.00163293 0)
(49.9983 0.00202611 0)
(49.9883 0.00256886 0)
(49.9962 0.00192978 0)
(49.986 0.00376401 0)
(49.9936 0.00186081 0)
(49.9832 0.00518207 0)
(49.9904 0.00181139 0)
(49.9796 0.00680019 0)
(49.9865 0.00193016 0)
(49.9753 0.00856056 0)
(49.9818 0.00241596 0)
(49.9702 0.0104246 0)
(49.9758 0.00353503 0)
(49.9636 0.0124009 0)
(49.9681 0.00561641 0)
(49.9552 0.0146796 0)
(49.9581 0.00910855 0)
(49.9447 0.0179657 0)
(49.9454 0.0150401 0)
(49.9313 0.0238646 0)
(49.9298 0.0255358 0)
(49.9151 0.0353722 0)
(49.9121 0.0442037 0)
(49.8976 0.0568928 0)
(49.8952 0.0753542 0)
(49.8833 0.0926148 0)
(50.0027 0.00142439 0)
(49.998 -0.00168764 0)
(50.0031 0.00166371 0)
(49.9976 -0.000598117 0)
(50.0021 0.00178615 0)
(49.9968 9.88496e-05 0)
(50.0013 0.00143589 0)
(49.9963 0.000759808 0)
(50.0006 0.00127947 0)
(49.9955 0.00163583 0)
(49.9994 0.00115255 0)
(49.9941 0.00248807 0)
(49.9978 0.00100887 0)
(49.9925 0.00339888 0)
(49.9961 0.000925846 0)
(49.9907 0.00439513 0)
(49.994 0.000950768 0)
(49.9884 0.0055601 0)
(49.9915 0.00115742 0)
(49.9855 0.00680881 0)
(49.9884 0.00157264 0)
(49.9819 0.00812683 0)
(49.9846 0.00232399 0)
(49.9775 0.00947585 0)
(49.98 0.00358367 0)
(49.9723 0.0109032 0)
(49.9741 0.00557737 0)
(49.9658 0.0125192 0)
(49.9665 0.00862828 0)
(49.9576 0.0146537 0)
(49.9568 0.0131978 0)
(49.9474 0.0181284 0)
(49.9446 0.0202964 0)
(49.9349 0.0246045 0)
(49.9301 0.031864 0)
(49.9201 0.0368003 0)
(49.9142 0.0509077 0)
(49.9047 0.0583767 0)
(49.8996 0.0806128 0)
(49.8928 0.0921794 0)
(50.0016 0.000832434 0)
(49.9992 -0.000787395 0)
(50.0024 0.000715423 0)
(49.9988 0.000610557 0)
(50.0013 0.000816227 0)
(49.9978 0.00153754 0)
(50.0006 0.000309289 0)
(49.9974 0.00218241 0)
(50 1.38179e-05 0)
(49.9966 0.00316167 0)
(49.9988 6.48892e-05 0)
(49.9952 0.00405035 0)
(49.9971 0.000147324 0)
(49.9936 0.00479549 0)
(49.9954 0.000381881 0)
(49.9918 0.00550599 0)
(49.9934 0.000852757 0)
(49.9895 0.00629894 0)
(49.9909 0.00159295 0)
(49.9866 0.00716422 0)
(49.9878 0.00261995 0)
(49.9829 0.00810806 0)
(49.984 0.00401011 0)
(49.9786 0.00912521 0)
(49.9794 0.0059059 0)
(49.9735 0.0103192 0)
(49.9736 0.00853473 0)
(49.967 0.011898 0)
(49.9661 0.0121984 0)
(49.9591 0.0142999 0)
(49.9567 0.0173626 0)
(49.9494 0.0184084 0)
(49.9451 0.0250152 0)
(49.9376 0.0258197 0)
(49.9317 0.0369315 0)
(49.924 0.0389448 0)
(49.9174 0.0556466 0)
(49.9104 0.0607557 0)
(49.9049 0.0835261 0)
(49.9004 0.0932364 0)
(50.0012 3.99082e-06 0)
(49.9996 0.000687474 0)
(50.0023 -0.000667196 0)
(49.9993 0.00185417 0)
(50.0012 -0.000373116 0)
(49.9982 0.00301707 0)
(50.0004 -0.000613555 0)
(49.9978 0.00344262 0)
(49.9999 -0.00081904 0)
(49.9971 0.00411956 0)
(49.9987 -0.000377784 0)
(49.9957 0.00480982 0)
(49.9971 0.000205863 0)
(49.9941 0.005175 0)
(49.9954 0.000918587 0)
(49.9924 0.00548482 0)
(49.9934 0.00190195 0)
(49.9902 0.00590664 0)
(49.9909 0.00313033 0)
(49.9873 0.0064883 0)
(49.9878 0.00460392 0)
(49.9837 0.00727079 0)
(49.9839 0.0063807 0)
(49.9794 0.00827458 0)
(49.9794 0.00858464 0)
(49.9744 0.00962991 0)
(49.9737 0.0114432 0)
(49.9681 0.011595 0)
(49.9664 0.0152726 0)
(49.9603 0.0146481 0)
(49.9573 0.0205917 0)
(49.951 0.0196496 0)
(49.9464 0.0283879 0)
(49.9399 0.0280903 0)
(49.9339 0.0402813 0)
(49.9276 0.0421125 0)
(49.9211 0.0583727 0)
(49.9155 0.0640989 0)
(49.9105 0.0844544 0)
(49.907 0.095373 0)
(50.0011 -0.000784277 0)
(49.9995 0.00221451 0)
(50.0021 -0.0017943 0)
(49.9995 0.00256683 0)
(50.0013 -0.00128208 0)
(49.9984 0.00383844 0)
(50.0003 -0.000861168 0)
(49.998 0.00397813 0)
(49.9999 -0.000775747 0)
(49.9975 0.00407395 0)
(49.9988 0.00010971 0)
(49.9962 0.00447592 0)
(49.9971 0.00124161 0)
(49.9946 0.00455092 0)
(49.9954 0.00233123 0)
(49.9929 0.00462551 0)
(49.9934 0.00361929 0)
(49.9908 0.00494605 0)
(49.991 0.00509084 0)
(49.9879 0.00554272 0)
(49.9879 0.00671394 0)
(49.9844 0.00647789 0)
(49.9842 0.00854444 0)
(49.9802 0.0078122 0)
(49.9797 0.010707 0)
(49.9752 0.00967227 0)
(49.9742 0.0134744 0)
(49.9691 0.0122746 0)
(49.9671 0.0172482 0)
(49.9616 0.0160726 0)
(49.9584 0.0226268 0)
(49.9527 0.0218928 0)
(49.9481 0.0305707 0)
(49.9423 0.0311425 0)
(49.9366 0.042472 0)
(49.931 0.0457439 0)
(49.9253 0.0600111 0)
(49.9203 0.067646 0)
(49.9161 0.0845311 0)
(49.913 0.0975866 0)
(50.001 -0.00124584 0)
(49.9992 0.00308096 0)
(50.0017 -0.00197353 0)
(49.9995 0.00254587 0)
(50.0012 -0.00143988 0)
(49.9985 0.00358878 0)
(50.0001 -0.000220874 0)
(49.998 0.00361353 0)
(49.9997 0.000197092 0)
(49.9977 0.00322402 0)
(49.9987 0.00131433 0)
(49.9965 0.00346467 0)
(49.997 0.00281634 0)
(49.9949 0.00355858 0)
(49.9953 0.00405312 0)
(49.9933 0.00364512 0)
(49.9934 0.00533089 0)
(49.9912 0.00415723 0)
(49.9911 0.00675084 0)
(49.9885 0.00509156 0)
(49.9881 0.00823777 0)
(49.985 0.0064392 0)
(49.9845 0.00987351 0)
(49.9808 0.00825635 0)
(49.9802 0.0118676 0)
(49.976 0.0106568 0)
(49.9748 0.0145648 0)
(49.97 0.0138186 0)
(49.968 0.0183899 0)
(49.9629 0.0181913 0)
(49.9597 0.023951 0)
(49.9544 0.0246223 0)
(49.95 0.0321133 0)
(49.9448 0.0344394 0)
(49.9396 0.0440579 0)
(49.9345 0.0493339 0)
(49.9295 0.0611711 0)
(49.925 0.0708239 0)
(49.9218 0.084529 0)
(49.9189 0.0991759 0)
(50.0009 -0.00124255 0)
(49.9989 0.00296562 0)
(50.0011 -0.00127431 0)
(49.9993 0.00192137 0)
(50.0009 -0.000875939 0)
(49.9986 0.00257047 0)
(49.9997 0.000931441 0)
(49.998 0.00278921 0)
(49.9992 0.00165987 0)
(49.9978 0.00218633 0)
(49.9984 0.00264329 0)
(49.9967 0.00240454 0)
(49.9968 0.00423234 0)
(49.9951 0.00283101 0)
(49.9951 0.00543117 0)
(49.9935 0.00318613 0)
(49.9934 0.00645286 0)
(49.9915 0.00401609 0)
(49.9911 0.00762898 0)
(49.9888 0.00541643 0)
(49.9883 0.00889237 0)
(49.9854 0.0072449 0)
(49.9848 0.0103306 0)
(49.9813 0.00948894 0)
(49.9807 0.0122671 0)
(49.9767 0.0122533 0)
(49.9755 0.0151058 0)
(49.971 0.015735 0)
(49.9689 0.0192226 0)
(49.9641 0.0204176 0)
(49.961 0.0251384 0)
(49.9562 0.0272085 0)
(49.9521 0.0335805 0)
(49.9472 0.0373951 0)
(49.9426 0.0455596 0)
(49.9379 0.0524124 0)
(49.9337 0.062289 0)
(49.9295 0.0733259 0)
(49.9271 0.0847443 0)
(49.9245 0.100033 0)
(50.0008 -0.000854281 0)
(49.9987 0.00203368 0)
(50.0005 -0.000118094 0)
(49.9992 0.0011426 0)
(50.0006 8.38176e-05 0)
(49.9987 0.00134553 0)
(49.9994 0.00199612 0)
(49.9979 0.00198302 0)
(49.9987 0.00299369 0)
(49.9977 0.00153764 0)
(49.9981 0.00361862 0)
(49.9967 0.00180982 0)
(49.9965 0.00501845 0)
(49.9951 0.00269045 0)
(49.9949 0.00611925 0)
(49.9935 0.00344371 0)
(49.9933 0.0068487 0)
(49.9916 0.00457352 0)
(49.9912 0.00779032 0)
(49.9889 0.0063603 0)
(49.9885 0.00895966 0)
(49.9855 0.00853042 0)
(49.9851 0.0103995 0)
(49.9817 0.0109945 0)
(49.981 0.0124792 0)
(49.9772 0.0138899 0)
(49.976 0.0156294 0)
(49.9718 0.0175148 0)
(49.9697 0.0201502 0)
(49.9653 0.0223975 0)
(49.9623 0.026416 0)
(49.9579 0.0294789 0)
(49.9541 0.0350846 0)
(49.9497 0.0399431 0)
(49.9455 0.0470892 0)
(49.9412 0.0549027 0)
(49.9377 0.0635574 0)
(49.934 0.075051 0)
(49.9322 0.0853271 0)
(49.93 0.100135 0)
(50.0007 -0.000333268 0)
(49.9988 0.000904449 0)
(50.0001 0.000927047 0)
(49.9991 0.000626283 0)
(50.0003 0.00103939 0)
(49.9989 0.000471389 0)
(49.9992 0.00256829 0)
(49.9979 0.00147239 0)
(49.9983 0.00379556 0)
(49.9976 0.00147955 0)
(49.9978 0.00410956 0)
(49.9968 0.00178757 0)
(49.9964 0.00517233 0)
(49.9951 0.00304699 0)
(49.9947 0.00623526 0)
(49.9935 0.00421968 0)
(49.9932 0.00679728 0)
(49.9915 0.00556827 0)
(49.9912 0.00757132 0)
(49.9889 0.00756488 0)
(49.9886 0.00880119 0)
(49.9857 0.0098908 0)
(49.9852 0.0104735 0)
(49.9819 0.0123633 0)
(49.9813 0.012892 0)
(49.9777 0.0152033 0)
(49.9765 0.0164539 0)
(49.9726 0.0188911 0)
(49.9705 0.0213606 0)
(49.9665 0.0239987 0)
(49.9636 0.0278684 0)
(49.9596 0.0314034 0)
(49.956 0.0366374 0)
(49.952 0.0421095 0)
(49.9483 0.0486159 0)
(49.9444 0.0569105 0)
(49.9415 0.0648751 0)
(49.9382 0.0762234 0)
(49.9369 0.0860457 0)
(49.9351 0.0998006 0)
(50.0005 8.18363e-05 0)
(49.9991 8.33286e-05 0)
(49.9999 0.00148587 0)
(49.999 0.000494844 0)
(50 0.00175231 0)
(49.9991 0.000217468 0)
(49.9992 0.00263575 0)
(49.9981 0.00133598 0)
(49.9981 0.00401223 0)
(49.9975 0.00189676 0)
(49.9976 0.00424707 0)
(49.9968 0.00223978 0)
(49.9964 0.00495274 0)
(49.9952 0.00367626 0)
(49.9947 0.0060286 0)
(49.9934 0.00520122 0)
(49.9931 0.0066256 0)
(49.9915 0.00666611 0)
(49.9913 0.00736309 0)
(49.989 0.00865811 0)
(49.9887 0.00879262 0)
(49.9858 0.0109871 0)
(49.9854 0.0108495 0)
(49.9822 0.0133835 0)
(49.9815 0.0136447 0)
(49.9783 0.0161638 0)
(49.9769 0.0175168 0)
(49.9734 0.0199813 0)
(49.9712 0.0226672 0)
(49.9676 0.025399 0)
(49.9648 0.0293213 0)
(49.9612 0.0331059 0)
(49.9579 0.0381709 0)
(49.9542 0.0439093 0)
(49.951 0.0501865 0)
(49.9475 0.0584126 0)
(49.945 0.066271 0)
(49.9423 0.0769298 0)
(49.9412 0.0867775 0)
(49.94 0.0992834 0)
(50.0004 0.000300519 0)
(49.9994 -0.000259393 0)
(49.9999 0.00151731 0)
(49.9991 0.00063756 0)
(49.9998 0.00207156 0)
(49.9992 0.000512837 0)
(49.9993 0.00244771 0)
(49.9984 0.00146201 0)
(49.9981 0.00383277 0)
(49.9975 0.00250974 0)
(49.9975 0.00425489 0)
(49.9969 0.00295146 0)
(49.9965 0.00466436 0)
(49.9953 0.00436568 0)
(49.9948 0.00573491 0)
(49.9935 0.00614807 0)
(49.9932 0.00652812 0)
(49.9916 0.00766811 0)
(49.9914 0.00738229 0)
(49.9892 0.00947764 0)
(49.9889 0.00909254 0)
(49.9861 0.011693 0)
(49.9855 0.0115818 0)
(49.9827 0.0140416 0)
(49.9818 0.0146885 0)
(49.9789 0.0168772 0)
(49.9774 0.0186998 0)
(49.9743 0.0209468 0)
(49.972 0.0239326 0)
(49.9688 0.0267439 0)
(49.966 0.0306629 0)
(49.9627 0.0347054 0)
(49.9597 0.0396008 0)
(49.9564 0.0454667 0)
(49.9536 0.05169 0)
(49.9506 0.059573 0)
(49.9484 0.0675991 0)
(49.9461 0.0773519 0)
(49.9453 0.0874046 0)
(49.9446 0.0986888 0)
(50.0003 0.000337832 0)
(49.9996 -0.000181692 0)
(50 0.00124349 0)
(49.9993 0.00084952 0)
(49.9997 0.00209626 0)
(49.9993 0.00105414 0)
(49.9993 0.00231609 0)
(49.9986 0.00170778 0)
(49.9983 0.0035185 0)
(49.9977 0.00304431 0)
(49.9975 0.0042325 0)
(49.997 0.0036933 0)
(49.9966 0.00449365 0)
(49.9956 0.00496743 0)
(49.995 0.00553829 0)
(49.9936 0.00686546 0)
(49.9933 0.00663452 0)
(49.9917 0.00841919 0)
(49.9915 0.00772234 0)
(49.9895 0.0100067 0)
(49.9891 0.00967089 0)
(49.9866 0.0121142 0)
(49.9858 0.0124829 0)
(49.9832 0.0145523 0)
(49.9821 0.0157851 0)
(49.9796 0.0175777 0)
(49.9779 0.019829 0)
(49.9752 0.0219192 0)
(49.9729 0.0250972 0)
(49.97 0.0280123 0)
(49.9674 0.03195 0)
(49.9644 0.0361113 0)
(49.9616 0.0410167 0)
(49.9587 0.0467558 0)
(49.9561 0.0531136 0)
(49.9536 0.0605244 0)
(49.9516 0.0687045 0)
(49.9499 0.0777406 0)
(49.9492 0.0877169 0)
(49.949 0.0982296 0)
(50.0002 0.000258735 0)
(49.9998 0.00011898 0)
(50 0.000957889 0)
(49.9995 0.000996219 0)
(49.9996 0.0019913 0)
(49.9993 0.00152714 0)
(49.9993 0.00234443 0)
(49.9989 0.00199295 0)
(49.9984 0.00326273 0)
(49.9979 0.00339975 0)
(49.9975 0.00421944 0)
(49.997 0.0043619 0)
(49.9967 0.00450415 0)
(49.9958 0.00547709 0)
(49.9953 0.00550447 0)
(49.9939 0.00731735 0)
(49.9935 0.00694804 0)
(49.992 0.00888347 0)
(49.9917 0.00835587 0)
(49.9899 0.010308 0)
(49.9893 0.010445 0)
(49.9872 0.012385 0)
(49.9861 0.013401 0)
(49.9839 0.0150668 0)
(49.9825 0.0167685 0)
(49.9803 0.0183898 0)
(49.9786 0.0207921 0)
(49.9762 0.0229661 0)
(49.9739 0.0261235 0)
(49.9713 0.0292158 0)
(49.9688 0.0331822 0)
(49.9661 0.037328 0)
(49.9635 0.0424148 0)
(49.9611 0.0478116 0)
(49.9586 0.0544379 0)
(49.9566 0.0613084 0)
(49.9548 0.0695874 0)
(49.9535 0.0780971 0)
(49.953 0.0877514 0)
(49.9531 0.0978701 0)
(50.0002 0.000179618 0)
(49.9999 0.0003982 0)
(50 0.000840979 0)
(49.9997 0.00104661 0)
(49.9996 0.00189126 0)
(49.9994 0.00182188 0)
(49.9992 0.00247048 0)
(49.999 0.00229818 0)
(49.9985 0.00313311 0)
(49.9981 0.00362404 0)
(49.9976 0.00421072 0)
(49.9971 0.0048849 0)
(49.9968 0.00469222 0)
(49.996 0.00589178 0)
(49.9955 0.0056687 0)
(49.9942 0.00755199 0)
(49.9937 0.00739364 0)
(49.9923 0.00916191 0)
(49.9918 0.00911348 0)
(49.9904 0.0105721 0)
(49.9896 0.0112391 0)
(49.9878 0.0126929 0)
(49.9865 0.014203 0)
(49.9845 0.0156488 0)
(49.983 0.0176121 0)
(49.9811 0.0192558 0)
(49.9794 0.0216702 0)
(49.9772 0.0239826 0)
(49.975 0.0271073 0)
(49.9727 0.0302929 0)
(49.9702 0.0343596 0)
(49.968 0.03841 0)
(49.9654 0.043687 0)
(49.9634 0.0487952 0)
(49.9611 0.0555231 0)
(49.9595 0.0620739 0)
(49.9579 0.0701895 0)
(49.9571 0.0784373 0)
(49.9568 0.0876036 0)
(49.9571 0.0974644 0)
(50.0001 0.000160995 0)
(49.9999 0.000523327 0)
(49.9999 0.000900704 0)
(49.9998 0.00102683 0)
(49.9995 0.00183937 0)
(49.9995 0.00195601 0)
(49.9991 0.00260798 0)
(49.9991 0.00262245 0)
(49.9986 0.00311313 0)
(49.9982 0.00381177 0)
(49.9977 0.0041945 0)
(49.9972 0.00524275 0)
(49.9968 0.00499418 0)
(49.9962 0.00619864 0)
(49.9957 0.00602591 0)
(49.9946 0.00762918 0)
(49.9938 0.00791033 0)
(49.9927 0.00933209 0)
(49.9919 0.00985149 0)
(49.9908 0.0109108 0)
(49.9899 0.0119289 0)
(49.9884 0.0131493 0)
(49.987 0.0148102 0)
(49.9852 0.016337 0)
(49.9836 0.0183165 0)
(49.9819 0.0201395 0)
(49.9802 0.0225292 0)
(49.9783 0.0249036 0)
(49.9761 0.0281222 0)
(49.9741 0.031203 0)
(49.9717 0.0355049 0)
(49.9698 0.0393647 0)
(49.9673 0.0448082 0)
(49.9658 0.0497509 0)
(49.9636 0.0563469 0)
(49.9624 0.0628551 0)
(49.961 0.0705121 0)
(49.9605 0.0787694 0)
(49.9604 0.0872916 0)
(49.961 0.096996 0)
(50 0.000193542 0)
(50 0.000506486 0)
(49.9997 0.00104683 0)
(49.9999 0.00102856 0)
(49.9995 0.00181827 0)
(49.9995 0.00201857 0)
(49.999 0.00269263 0)
(49.999 0.00293422 0)
(49.9986 0.00318192 0)
(49.9984 0.00398621 0)
(49.9977 0.00422541 0)
(49.9973 0.00544039 0)
(49.9968 0.00535292 0)
(49.9963 0.00642389 0)
(49.9957 0.00649862 0)
(49.995 0.00768929 0)
(49.994 0.0084009 0)
(49.9931 0.0095054 0)
(49.9921 0.0104669 0)
(49.9912 0.0113492 0)
(49.9902 0.0125161 0)
(49.9889 0.0137122 0)
(49.9875 0.0153184 0)
(49.9859 0.0170358 0)
(49.9843 0.0189619 0)
(49.9828 0.0209671 0)
(49.9809 0.0233765 0)
(49.9794 0.0257476 0)
(49.9772 0.0291015 0)
(49.9756 0.0320403 0)
(49.9732 0.0365273 0)
(49.9717 0.0402651 0)
(49.9693 0.0457444 0)
(49.968 0.0506676 0)
(49.9661 0.0569896 0)
(49.9652 0.0635545 0)
(49.9641 0.0707018 0)
(49.9639 0.0789728 0)
(49.9639 0.0869259 0)
(49.9648 0.0964168 0)
(49.9999 0.000257537 0)
(50.0001 0.000427612 0)
(49.9996 0.00116879 0)
(49.9999 0.00112391 0)
(49.9994 0.00179872 0)
(49.9996 0.00210283 0)
(49.999 0.00269584 0)
(49.999 0.00320445 0)
(49.9985 0.00332245 0)
(49.9985 0.00413594 0)
(49.9978 0.00435737 0)
(49.9975 0.00549805 0)
(49.9968 0.00573764 0)
(49.9965 0.00658588 0)
(49.9957 0.00698606 0)
(49.9953 0.00782782 0)
(49.9942 0.00878525 0)
(49.9935 0.00977377 0)
(49.9923 0.0108978 0)
(49.9916 0.011888 0)
(49.9905 0.0130073 0)
(49.9895 0.0143274 0)
(49.988 0.0158218 0)
(49.9867 0.0176511 0)
(49.9849 0.0196405 0)
(49.9837 0.0216632 0)
(49.9817 0.0242485 0)
(49.9806 0.02651 0)
(49.9783 0.0300123 0)
(49.9771 0.0328698 0)
(49.9747 0.0373615 0)
(49.9735 0.0411795 0)
(49.9712 0.0464563 0)
(49.9703 0.0515576 0)
(49.9685 0.0574827 0)
(49.968 0.0641308 0)
(49.967 0.0708409 0)
(49.9671 0.078975 0)
(49.9672 0.0865878 0)
(49.9685 0.0956677 0)
(49.9998 0.000311953 0)
(50.0002 0.000380789 0)
(49.9996 0.00120519 0)
(49.9999 0.001293 0)
(49.9994 0.00178663 0)
(49.9997 0.00222022 0)
(49.9989 0.00266764 0)
(49.9991 0.00340037 0)
(49.9984 0.00351955 0)
(49.9985 0.004258 0)
(49.9978 0.00456748 0)
(49.9976 0.00549667 0)
(49.9967 0.00608706 0)
(49.9966 0.00674197 0)
(49.9958 0.00740862 0)
(49.9955 0.00807688 0)
(49.9944 0.0090794 0)
(49.9938 0.0101227 0)
(49.9926 0.011203 0)
(49.992 0.0124371 0)
(49.9908 0.0134512 0)
(49.99 0.0149317 0)
(49.9885 0.0163531 0)
(49.9874 0.0181919 0)
(49.9855 0.0203239 0)
(49.9846 0.0222687 0)
(49.9826 0.0250883 0)
(49.9817 0.0272278 0)
(49.9795 0.030841 0)
(49.9785 0.0336844 0)
(49.9762 0.0380594 0)
(49.9753 0.0420532 0)
(49.9732 0.0470176 0)
(49.9725 0.0523568 0)
(49.9709 0.0578753 0)
(49.9707 0.0645763 0)
(49.9699 0.0709308 0)
(49.9703 0.078822 0)
(49.9705 0.0862323 0)
(49.972 0.0948033 0)
(49.9997 0.000323396 0)
(50.0003 0.000418597 0)
(49.9995 0.00114835 0)
(50 0.0014809 0)
(49.9994 0.00181167 0)
(49.9997 0.00233518 0)
(49.999 0.00268864 0)
(49.9992 0.00348595 0)
(49.9983 0.0037652 0)
(49.9986 0.00435424 0)
(49.9978 0.00481366 0)
(49.9978 0.00552579 0)
(49.9967 0.0063402 0)
(49.9968 0.00695829 0)
(49.9958 0.00770993 0)
(49.9957 0.00842914 0)
(49.9945 0.00931231 0)
(49.9941 0.0105044 0)
(49.9928 0.01148 0)
(49.9924 0.0129029 0)
(49.9911 0.0139238 0)
(49.9905 0.0154435 0)
(49.9889 0.0169449 0)
(49.9882 0.0186674 0)
(49.9862 0.0209757 0)
(49.9855 0.0228474 0)
(49.9834 0.0258124 0)
(49.9828 0.0279712 0)
(49.9806 0.0315309 0)
(49.98 0.0345002 0)
(49.9778 0.038647 0)
(49.9771 0.0428324 0)
(49.9751 0.0475153 0)
(49.9746 0.0529797 0)
(49.9732 0.058247 0)
(49.9733 0.0648491 0)
(49.9726 0.070996 0)
(49.9734 0.0785439 0)
(49.9735 0.0858139 0)
(49.9755 0.0938939 0)
(49.9997 0.00029695 0)
(50.0004 0.000526659 0)
(49.9996 0.00105338 0)
(50 0.00162829 0)
(49.9993 0.00188448 0)
(49.9998 0.00242976 0)
(49.999 0.00277875 0)
(49.9993 0.00348867 0)
(49.9983 0.00401243 0)
(49.9988 0.00445537 0)
(49.9977 0.00505613 0)
(49.998 0.00562541 0)
(49.9968 0.00650192 0)
(49.997 0.00723141 0)
(49.9958 0.00791965 0)
(49.9959 0.00882362 0)
(49.9947 0.0095286 0)
(49.9945 0.0108757 0)
(49.9931 0.0117794 0)
(49.9928 0.0132745 0)
(49.9914 0.0144203 0)
(49.9911 0.0158618 0)
(49.9894 0.0175661 0)
(49.989 0.0191065 0)
(49.9869 0.021584 0)
(49.9865 0.0234055 0)
(49.9843 0.0264218 0)
(49.984 0.0287163 0)
(49.9818 0.0321003 0)
(49.9814 0.0352989 0)
(49.9793 0.0391426 0)
(49.9789 0.043523 0)
(49.977 0.0479544 0)
(49.9768 0.0534417 0)
(49.9755 0.058591 0)
(49.9759 0.0649567 0)
(49.9752 0.0710441 0)
(49.9764 0.0781484 0)
(49.9765 0.085346 0)
(49.9788 0.0929428 0)
(49.9996 0.000254459 0)
(50.0004 0.000650045 0)
(49.9996 0.00100257 0)
(50.0001 0.00168355 0)
(49.9992 0.00200509 0)
(49.9999 0.00249964 0)
(49.9989 0.00291689 0)
(49.9995 0.00348412 0)
(49.9983 0.00419297 0)
(49.9989 0.00460924 0)
(49.9977 0.00524422 0)
(49.9982 0.00580987 0)
(49.9969 0.00660107 0)
(49.9971 0.00751329 0)
(49.9959 0.0081114 0)
(49.9962 0.00917629 0)
(49.9949 0.00978985 0)
(49.9948 0.0111808 0)
(49.9933 0.0121296 0)
(49.9932 0.0135715 0)
(49.9917 0.0149044 0)
(49.9917 0.0162405 0)
(49.9898 0.018137 0)
(49.9897 0.0195718 0)
(49.9876 0.0221069 0)
(49.9874 0.0239629 0)
(49.9853 0.0269308 0)
(49.9851 0.029412 0)
(49.983 0.0326166 0)
(49.9828 0.0360064 0)
(49.9808 0.0396104 0)
(49.9807 0.0440917 0)
(49.9789 0.0483451 0)
(49.979 0.0537766 0)
(49.9777 0.0588569 0)
(49.9784 0.0649633 0)
(49.9777 0.0710224 0)
(49.9793 0.0776865 0)
(49.9794 0.0848151 0)
(49.982 0.0919504 0)
(49.9996 0.000218697 0)
(50.0004 0.000739059 0)
(49.9995 0.00102797 0)
(50.0002 0.00165586 0)
(49.9992 0.00213852 0)
(50 0.00255274 0)
(49.9989 0.00307328 0)
(49.9996 0.00352052 0)
(49.9983 0.0042901 0)
(49.999 0.00480856 0)
(49.9978 0.00537389 0)
(49.9984 0.00606053 0)
(49.997 0.00667451 0)
(49.9974 0.00777253 0)
(49.996 0.00831825 0)
(49.9964 0.00945944 0)
(49.995 0.0101106 0)
(49.9952 0.0114084 0)
(49.9935 0.0125278 0)
(49.9937 0.0138192 0)
(49.992 0.0153633 0)
(49.9922 0.0166046 0)
(49.9903 0.0186226 0)
(49.9904 0.0200749 0)
(49.9883 0.0225369 0)
(49.9883 0.0245337 0)
(49.9862 0.027343 0)
(49.9862 0.0300505 0)
(49.9842 0.033088 0)
(49.9842 0.036603 0)
(49.9823 0.0400728 0)
(49.9824 0.0445156 0)
(49.9807 0.0487176 0)
(49.9812 0.0539752 0)
(49.9798 0.0590521 0)
(49.9809 0.0648839 0)
(49.9802 0.0709017 0)
(49.9822 0.0772018 0)
(49.9822 0.084186 0)
(49.985 0.090958 0)
(49.9995 0.000208201 0)
(50.0005 0.000769199 0)
(49.9994 0.00111158 0)
(50.0004 0.00161583 0)
(49.9991 0.00223158 0)
(50.0001 0.0026191 0)
(49.9989 0.00320066 0)
(49.9998 0.00361953 0)
(49.9983 0.00432966 0)
(49.9991 0.00500796 0)
(49.9978 0.00548915 0)
(49.9985 0.00631165 0)
(49.9971 0.00678209 0)
(49.9976 0.0079735 0)
(49.9961 0.00855144 0)
(49.9967 0.00968597 0)
(49.9952 0.0104547 0)
(49.9956 0.0116046 0)
(49.9938 0.0129143 0)
(49.9942 0.0140659 0)
(49.9923 0.0157723 0)
(49.9928 0.0169686 0)
(49.9908 0.019032 0)
(49.9911 0.0205786 0)
(49.989 0.0229181 0)
(49.9892 0.0250809 0)
(49.9871 0.0276983 0)
(49.9873 0.0306132 0)
(49.9854 0.0335078 0)
(49.9856 0.0371102 0)
(49.9838 0.0404977 0)
(49.9842 0.044834 0)
(49.9825 0.0490494 0)
(49.9833 0.054056 0)
(49.9819 0.0591866 0)
(49.9834 0.0647058 0)
(49.9826 0.0707009 0)
(49.9849 0.076684 0)
(49.9849 0.0834684 0)
(49.988 0.0899788 0)
(49.9994 0.000223089 0)
(50.0005 0.000748692 0)
(49.9994 0.00121105 0)
(50.0005 0.00161254 0)
(49.9991 0.00226903 0)
(50.0002 0.00271213 0)
(49.9988 0.00327534 0)
(49.9999 0.0037772 0)
(49.9984 0.00434435 0)
(49.9992 0.0051806 0)
(49.9978 0.00561145 0)
(49.9987 0.00651754 0)
(49.9972 0.00695617 0)
(49.9979 0.00810006 0)
(49.9962 0.00881504 0)
(49.997 0.00986178 0)
(49.9953 0.0107972 0)
(49.996 0.0118062 0)
(49.9941 0.0132447 0)
(49.9947 0.0143504 0)
(49.9927 0.0161055 0)
(49.9934 0.017354 0)
(49.9913 0.0193664 0)
(49.9918 0.0210571 0)
(49.9897 0.0232745 0)
(49.9902 0.0255695 0)
(49.9881 0.0280426 0)
(49.9885 0.0310703 0)
(49.9865 0.0338963 0)
(49.987 0.0375209 0)
(49.9852 0.0408745 0)
(49.986 0.045076 0)
(49.9843 0.0493041 0)
(49.9854 0.0540666 0)
(49.984 0.0592306 0)
(49.9858 0.0644578 0)
(49.985 0.0704117 0)
(49.9875 0.0761218 0)
(49.9875 0.0826854 0)
(49.9909 0.0889861 0)
(49.9994 0.000244714 0)
(50.0006 0.000719477 0)
(49.9993 0.00128006 0)
(50.0005 0.0016614 0)
(49.9991 0.00227169 0)
(50.0002 0.00281231 0)
(49.9988 0.00331785 0)
(49.9999 0.00394741 0)
(49.9984 0.00438035 0)
(49.9994 0.00531062 0)
(49.9979 0.00574381 0)
(49.9988 0.00667447 0)
(49.9973 0.00717443 0)
(49.9981 0.00819021 0)
(49.9964 0.00907759 0)
(49.9973 0.0100125 0)
(49.9955 0.0111179 0)
(49.9964 0.012022 0)
(49.9944 0.013522 0)
(49.9952 0.0146549 0)
(49.9931 0.0163767 0)
(49.994 0.0177494 0)
(49.9919 0.0196387 0)
(49.9926 0.0215022 0)
(49.9904 0.0235988 0)
(49.9911 0.0260043 0)
(49.989 0.0283808 0)
(49.9897 0.031426 0)
(49.9877 0.0342607 0)
(49.9884 0.0378224 0)
(49.9866 0.0412159 0)
(49.9877 0.0452377 0)
(49.986 0.049484 0)
(49.9874 0.0540266 0)
(49.986 0.0591648 0)
(49.9881 0.0641761 0)
(49.9873 0.0700071 0)
(49.9901 0.0755329 0)
(49.9901 0.0818355 0)
(49.9936 0.0879687 0)
(49.9993 0.000255633 0)
(50.0007 0.000721241 0)
(49.9992 0.00129431 0)
(50.0006 0.00175513 0)
(49.999 0.00226535 0)
(50.0003 0.00290488 0)
(49.9988 0.00335377 0)
(50 0.00408366 0)
(49.9984 0.00446843 0)
(49.9995 0.00538988 0)
(49.9979 0.00589544 0)
(49.999 0.00678624 0)
(49.9974 0.00740633 0)
(49.9984 0.00828543 0)
(49.9965 0.00930158 0)
(49.9976 0.0101736 0)
(49.9957 0.0113836 0)
(49.9968 0.0122624 0)
(49.9947 0.0137526 0)
(49.9956 0.0149523 0)
(49.9936 0.0166166 0)
(49.9945 0.0181181 0)
(49.9925 0.0198876 0)
(49.9933 0.0218914 0)
(49.9912 0.0238936 0)
(49.992 0.0263869 0)
(49.99 0.0286976 0)
(49.9908 0.0317103 0)
(49.9888 0.0345809 0)
(49.9898 0.0380322 0)
(49.988 0.0415112 0)
(49.9894 0.0453245 0)
(49.9877 0.0495963 0)
(49.9894 0.0539329 0)
(49.988 0.0589993 0)
(49.9903 0.0638648 0)
(49.9895 0.0694928 0)
(49.9925 0.0749205 0)
(49.9926 0.0809156 0)
(49.9963 0.0869266 0)
(49.9993 0.00025279 0)
(50.0007 0.00075586 0)
(49.9992 0.00127026 0)
(50.0006 0.00185549 0)
(49.999 0.00227248 0)
(50.0004 0.00298409 0)
(49.9988 0.0034014 0)
(50.0001 0.00417553 0)
(49.9984 0.00459696 0)
(49.9997 0.00543933 0)
(49.9979 0.00605759 0)
(49.9992 0.00686683 0)
(49.9974 0.00762729 0)
(49.9987 0.00839882 0)
(49.9967 0.00948403 0)
(49.9979 0.0103496 0)