/*--------------------------------*- C++ -*----------------------------------*\
| =========                 |                                                 |
| \\      /  F ield         | OpenFOAM: The Open Source CFD Toolbox           |
|  \\    /   O peration     | Version:  v2012                                 |
|   \\  /    A nd           | Website:  www.openfoam.com                      |
|    \\/     M anipulation  |                                                 |
\*---------------------------------------------------------------------------*/
FoamFile
{
    version     2.0;
    format      ascii;
    class       volScalarField;
    location    "0.35";
    object      p;
}
// * * * * * * * * * * * * * * * * * * * * * * * * * * * * * * * * * * * * * //

dimensions      [0 2 -2 0 0 0 0];


internalField   nonuniform List<scalar> 
2400
(
88.9266
89.3943
89.5053
89.6464
89.7102
90.0205
90.2973
90.847
91.3171
92.1183
92.8408
94.03
95.1795
97.0273
98.9478
102.015
105.51
111.207
118.396
129.901
88.9965
89.3287
89.4737
89.6112
89.7345
89.9982
90.3206
90.7977
91.339
92.0462
92.8728
93.9249
95.2209
96.8629
98.9999
101.746
105.486
110.342
116.74
123.327
89.064
89.2619
89.4196
89.5707
89.7418
89.9849
90.324
90.7611
91.3241
91.9929
92.847
93.8547
95.1732
96.7565
98.8785
101.476
104.988
109.143
114.214
118.708
89.1223
89.2028
89.3577
89.5201
89.7298
89.965
90.3097
90.72
91.2827
91.9295
92.7784
93.7624
95.0543
96.5931
98.618
101.066
104.191
107.768
111.744
115.148
89.1489
89.1567
89.2963
89.4666
89.6973
89.9376
90.2772
90.6734
91.219
91.8508
92.6767
93.6401
94.8839
96.367
98.2616
100.518
103.257
106.28
109.402
111.918
89.1432
89.1223
89.2404
89.4117
89.6465
89.8957
90.2266
90.6158
91.1362
91.7544
92.5456
93.4842
94.6642
96.0757
97.8164
99.8587
102.225
104.743
107.171
108.957
89.1125
89.0907
89.1898
89.3543
89.583
89.8378
90.1596
90.542
91.0372
91.6365
92.3888
93.2909
94.3986
95.7185
97.2965
99.1113
101.129
103.192
105.044
106.242
89.064
89.0537
89.1402
89.2939
89.5107
89.7647
90.077
90.4507
90.9215
91.496
92.2062
93.0598
94.0887
95.3015
96.7139
98.2987
99.9942
101.65
103.023
103.749
89.0035
89.0071
89.0866
89.2289
89.4314
89.6783
89.9798
90.3414
90.7881
91.3325
91.9972
92.7927
93.7369
94.8335
96.0798
97.44
98.8395
100.134
101.105
101.452
88.9351
88.9503
89.0256
89.1573
89.3449
89.5804
89.8685
90.2146
90.636
91.1462
91.762
92.4926
93.3472
94.3226
95.4047
96.5499
97.6788
98.6557
99.2871
99.3242
88.8601
88.8834
88.9556
89.0776
89.2506
89.4719
89.7438
90.0708
90.4649
90.9376
91.5012
92.1624
92.9239
93.7767
94.6983
95.6406
96.523
97.2208
97.5647
97.3471
88.779
88.8069
88.8762
88.9891
89.148
89.3532
89.6063
89.911
90.2752
90.7075
91.2163
91.8052
92.4717
93.2025
93.9693
94.7218
95.3811
95.8338
95.9327
95.5039
88.6917
88.7215
88.7873
88.8914
89.0364
89.2243
89.4565
89.7361
90.0677
90.4573
90.9092
91.4241
91.9955
92.6065
93.2254
93.8015
94.2594
94.497
94.3865
93.7815
88.598
88.6278
88.6892
88.7844
88.9156
89.0853
89.295
89.547
89.8438
90.1885
90.5821
91.0224
91.4996
91.9944
92.4733
92.8865
93.1631
93.2117
92.9216
92.1692
88.4978
88.5262
88.5824
88.6682
88.7854
88.9363
89.1223
89.3449
89.6048
89.9029
90.2374
90.6033
90.9883
91.3714
91.7186
91.9819
92.0957
91.9784
91.5339
90.658
88.391
88.417
88.4674
88.5433
88.6461
88.7777
88.9389
89.1307
89.3524
89.6028
89.8778
90.1702
90.4657
90.7423
90.9664
91.0924
91.06
90.7969
90.2198
89.2404
88.2777
88.3008
88.3447
88.4102
88.4981
88.6098
88.7456
88.9056
89.088
89.2901
89.5058
89.7262
89.9355
90.1113
90.221
90.2215
90.0582
89.6671
88.9758
87.9097
88.158
88.1779
88.2148
88.2694
88.342
88.4334
88.5432
88.6708
88.8135
88.967
89.1242
89.2744
89.4013
89.4823
89.4858
89.3723
89.0919
88.5883
87.7989
86.6602
88.0325
88.0489
88.0784
88.1216
88.1784
88.2491
88.3327
88.4277
88.5304
88.6359
88.7356
88.8181
88.8665
88.8585
88.7643
88.547
88.1621
87.5599
86.6861
85.4869
87.9014
87.9141
87.9361
87.9676
88.0084
88.0581
88.1152
88.1775
88.2406
88.2988
88.3426
88.36
88.3341
88.2432
88.059
87.7479
87.2699
86.5812
85.6349
84.3853
87.7655
87.7744
87.7886
87.8082
87.8327
87.8613
87.8919
87.9219
87.946
87.9578
87.9476
87.903
87.8071
87.6391
87.3725
86.9766
86.4157
85.6513
84.6429
83.3517
87.6253
87.6303
87.6366
87.6443
87.6524
87.6599
87.6643
87.6623
87.6483
87.6153
87.5532
87.4497
87.2881
87.0487
86.7068
86.2345
85.6
84.7695
83.7079
82.3824
87.4816
87.4827
87.4811
87.4768
87.4686
87.4553
87.4338
87.4005
87.3494
87.2732
87.1617
87.0025
86.7796
86.4743
86.0638
85.5229
84.8231
83.9349
82.8279
81.4745
87.3353
87.3325
87.323
87.3068
87.2825
87.2486
87.2018
87.1381
87.0512
86.9337
86.7752
86.5638
86.2839
85.9181
85.4453
84.8428
84.0852
83.1467
82.0012
80.6251
87.1872
87.1806
87.1633
87.1354
87.0953
87.0413
86.9699
86.8769
86.7557
86.5988
86.3961
86.1357
85.8031
85.3819
84.8527
84.1951
83.3864
82.4043
81.2261
79.832
87.0385
87.028
87.0032
86.9639
86.9084
86.8349
86.7398
86.6186
86.4647
86.2706
86.0263
85.7205
85.3393
84.8675
84.2874
83.5806
82.727
81.7071
80.5013
79.093
86.8902
86.8761
86.8439
86.7934
86.7231
86.6309
86.513
86.365
86.1802
85.9511
85.668
85.3202
84.8944
84.3766
83.7507
83.0001
82.1071
81.0545
79.8256
78.4063
86.7435
86.7258
86.6866
86.6255
86.5409
86.4308
86.2913
86.1179
85.9039
85.6422
85.3231
84.9365
84.4701
83.9107
83.2438
82.4544
81.5268
80.4461
79.1978
77.7703
86.5997
86.5786
86.5326
86.4614
86.3633
86.2362
86.0763
85.879
85.6379
85.3458
84.9936
84.5716
84.0682
83.4714
82.7678
81.9441
80.9864
79.8816
78.6172
77.1837
86.46
86.4357
86.3833
86.3025
86.1917
86.0487
85.8697
85.6502
85.3839
85.0638
84.6813
84.2271
83.6903
83.06
82.3238
81.4701
80.4861
79.3607
78.0832
76.6454
86.3258
86.2985
86.2402
86.1505
86.0278
85.87
85.6733
85.4333
85.1438
84.7982
84.3881
83.9048
83.3381
82.6779
81.9131
81.0329
80.0263
78.8835
77.5951
76.1546
86.1986
86.1685
86.1047
86.0068
85.8731
85.7017
85.4887
85.23
84.9195
84.5508
84.1159
83.6065
83.0132
82.3267
81.5367
80.6336
79.6076
78.45
77.1529
75.7108
86.0798
86.0472
85.9783
85.8729
85.7293
85.5455
85.3178
85.0422
84.7128
84.3234
83.8664
83.334
82.7173
82.0077
81.1959
80.273
79.2304
78.0605
76.7564
75.3137
85.9708
85.9359
85.8626
85.7504
85.5979
85.4031
85.1623
84.8717
84.5256
84.1179
83.6415
83.0889
82.4519
81.7224
80.8918
79.9522
78.8956
77.7155
76.4059
74.9631
85.8732
85.8363
85.759
85.6409
85.4806
85.2761
85.024
84.7203
84.3596
83.9361
83.443
82.8732
82.2188
81.4724
80.6259
79.6722
78.604
77.4156
76.1017
74.6593
85.7884
85.7498
85.6691
85.546
85.379
85.1663
84.9044
84.5896
84.2167
83.7799
83.2728
82.6885
82.0196
81.2592
80.3996
79.4344
78.3568
77.1617
75.8445
74.4028
85.7179
85.6778
85.5944
85.4672
85.2947
85.0753
84.8055
84.4816
84.0987
83.6512
83.1326
82.5367
81.8563
81.0846
80.2146
79.2402
78.1552
76.955
75.6354
74.1944
85.663
85.6219
85.5363
85.406
85.2293
85.0047
84.7288
84.398
84.0074
83.5517
83.0245
82.4198
81.7305
80.9504
80.0726
79.0913
78.0009
76.7969
75.4756
74.0353
85.6253
85.5834
85.4964
85.3638
85.1843
84.9561
84.6761
84.3406
83.9448
83.4834
82.9504
82.3397
81.6445
80.8586
79.9756
78.9897
77.8956
76.6891
75.3668
73.927
85.6058
85.5636
85.4759
85.3422
85.1612
84.9311
84.649
84.311
83.9125
83.4484
82.9124
82.2986
81.6003
80.8116
79.9258
78.9376
77.8416
76.6339
75.311
73.8715
140.383
129.554
113.708
100.594
90.4656
81.881
73.6436
65.1644
56.2884
47.1455
38.1312
29.8379
22.8901
17.6939
14.3596
12.6767
12.227
12.5139
13.1335
13.7823
14.2882
14.5508
14.5491
14.2883
13.8137
13.1601
12.3813
11.5038
10.5714
9.59492
8.60883
7.60996
6.62804
5.64892
4.70297
3.76611
2.87556
1.99353
1.17537
0.351512
128.275
123.761
112.171
99.9896
89.6937
81.0302
72.9896
64.827
56.2772
47.4374
38.714
30.6548
23.8325
18.6441
15.2299
13.4246
12.8524
13.0315
13.5547
14.1173
14.556
14.7667
14.7272
14.438
13.9435
13.2742
12.485
11.5981
10.66
9.67701
8.68729
7.68304
6.69862
5.7146
4.76686
3.82566
2.93322
2.04839
1.22123
0.38794
121.993
119.513
110.851
99.7027
89.3081
80.3854
72.3747
64.4948
56.3667
48.0231
39.7947
32.148
25.581
20.4495
16.9057
14.8461
13.9776
13.8841
14.1866
14.5759
14.8673
14.9641
14.8482
14.5143
13.9978
13.3193
12.5283
11.6429
10.7075
9.72738
8.73947
7.73653
6.75136
5.76694
4.81561
3.87296
2.97315
2.08452
1.23832
0.388439
117.075
115.228
108.52
98.7221
88.6968
79.7239
71.7242
64.1004
56.4153
48.5965
40.8859
33.6808
27.4081
22.3871
18.7708
16.5016
15.353
14.9757
15.0249
15.205
15.3336
15.3079
15.1029
14.7086
14.1521
13.4497
12.6429
11.7491
10.8068
9.82353
8.83051
7.82515
6.8336
5.84588
4.8857
3.93818
3.02557
2.12805
1.2617
0.399024
112.946
111.196
105.733
97.3101
87.9674
79.1572
71.2112
63.7917
56.4886
49.156
41.9401
35.1582
29.1741
24.2775
20.6201
18.1784
16.7785
16.1309
15.9294
15.9012
15.8668
15.7174
15.418
14.9555
14.3502
13.6161
12.7875
11.8812
10.929
9.94052
8.94087
7.93179
6.93284
5.94023
4.96999
4.01481
3.08764
2.17748
1.29216
0.418687
109.37
107.568
102.922
95.6728
87.1366
78.671
70.8463
63.5901
56.5982
49.6901
42.9238
36.5332
30.8223
26.0531
22.3751
19.791
18.1702
17.2751
16.8383
16.6111
16.4185
16.148
15.7553
15.2238
14.5674
13.799
12.9463
12.0253
11.0618
10.0667
9.05981
8.04583
7.03918
6.04027
5.05967
4.09486
3.1529
2.2284
1.3249
0.436462
106.211
104.348
100.234
93.9106
86.1902
78.181
70.5641
63.4682
56.7305
50.1811
43.8127
37.7808
32.3303
27.693
24.0146
21.3174
19.5069
18.3903
17.7367
17.322
16.9774
16.5895
16.1062
15.5068
14.7992
13.9952
13.1166
12.179
11.2027
10.1994
9.18419
8.16384
7.14883
6.1422
5.1508
4.17497
3.21825
2.27863
1.35698
0.450146
103.382
101.471
97.7129
92.1017
85.1314
77.6376
70.3044
63.395
56.8781
50.6289
44.6057
38.9
33.6982
29.1986
25.5396
22.7576
20.7875
19.4754
18.6238
18.0331
17.543
17.0415
16.47
15.804
15.0455
14.2047
13.2987
12.3423
11.3515
10.3378
9.31303
8.28465
7.2604
6.24467
5.24193
4.25406
3.28262
2.32741
1.38764
0.461383
100.822
98.8702
95.37
90.3069
83.9896
77.0281
70.0337
63.3468
57.038
51.0444
45.3182
39.9055
34.9396
30.5825
26.96
24.1182
22.0157
20.5318
19.5002
18.7447
18.1156
17.5038
16.8463
16.1148
15.3057
14.427
13.4922
12.5147
11.5076
10.4815
9.44569
8.40762
7.37319
6.34713
5.33255
4.3319
3.34577
2.37467
1.41702
0.471683
98.4855
96.5022
93.2007
88.5665
82.8037
76.3561
69.7348
63.3034
57.2046
51.4374
45.9675
40.8149
36.069
31.8552
28.2829
25.4026
23.1918
21.5584
20.3638
19.4548
18.6933
17.9746
17.2331
16.437
15.5777
14.6604
13.6956
12.6952
11.67
10.6296
9.58139
8.5322
7.48666
6.4493
5.42241
4.40847
3.40764
2.42053
1.44538
0.481464
96.3402
94.3336
91.192
86.9021
81.6079
75.6363
69.4006
63.2492
57.3693
51.8114
46.5663
41.6429
37.0981
33.0245
29.5123
26.6119
24.3146
22.5523
21.2114
20.1601
19.273
18.4511
17.6277
16.768
15.859
14.9029
13.9072
12.8826
11.8379
10.7815
9.7196
8.65807
7.60057
6.55113
5.5115
4.48393
3.46833
2.46525
1.47293
0.490849
94.3614
92.3391
89.3303
85.3239
80.4276
74.8863
69.0307
63.1738
57.5224
52.1658
47.1222
42.4007
38.0374
34.0975
30.6518
27.7466
25.3826
23.5106
22.0396
20.8575
19.8521
18.9309
18.028
17.1058
16.1477
15.1527
14.1258
13.076
12.0105
10.937
9.86015
8.7852
7.71492
6.65276
5.59996
4.55849
3.52804
2.50906
1.49987
0.500023
92.5296
90.4983
87.603
83.8355
79.2796
74.1228
68.6294
63.0713
57.6559
52.4976
47.6393
43.0974
38.8964
35.0816
31.7056
28.808
26.3946
24.4312
22.8457
21.5444
20.4283
19.4123
18.4321
17.4487
16.4423
15.4087
14.3504
13.2746
12.1876
11.0957
10.0029
8.91361
7.82979
6.7543
5.68793
4.63231
3.58694
2.55216
1.52632
0.509065
90.8291
88.7946
85.999
82.4365
78.1742
73.359
68.2037
62.9401
57.764
52.803
48.1193
43.7395
39.6841
35.9847
32.6789
29.7983
27.3505
25.3123
23.6274
22.2184
20.9996
19.8936
18.8388
17.7956
16.7415
15.6695
14.5798
13.4778
12.3684
11.2574
10.1478
9.04324
7.94516
6.85579
5.77547
4.70547
3.6451
2.59459
1.55231
0.517932
89.247
87.2147
84.5081
81.1239
77.117
72.6054
67.7615
62.7815
57.8436
53.0789
48.5626
44.332
40.4081
36.8144
33.5772
30.7203
28.2507
26.1526
24.3825
22.8775
21.5641
20.3731
19.2466
18.145
17.044
15.9341
14.8131
13.6846
12.5525
11.4216
10.2944
9.17391
8.06093
6.95717
5.86254
4.77797
3.70255
2.63639
1.57784
0.526588
87.7727
85.7469
83.1211
79.8939
76.111
71.8695
67.31
62.5985
57.8937
53.3232
48.9693
44.8784
41.0747
37.5779
34.4066
31.5776
29.0963
26.9514
25.1093
23.5195
22.1198
20.8492
19.654
18.4957
17.3487
16.2012
15.0491
13.8941
12.739
11.5878
10.4425
9.30539
8.17694
7.05834
5.9491
4.84978
3.75926
2.67753
1.60289
0.535046
86.3972
84.3816
81.8298
78.7421
75.1575
71.1566
66.8557
62.3954
57.9152
53.5348
49.3393
45.3811
41.689
38.2816
35.1727
32.374
29.8887
27.7082
25.8063
24.1424
22.6647
21.32
20.0596
18.8463
17.6541
16.4697
15.2867
14.1054
12.9272
11.7555
10.5915
9.43739
8.29302
7.1592
6.03506
4.92086
3.81523
2.71803
1.6275
0.543337
85.1127
83.1104
80.6269
77.6643
74.2561
70.4703
66.4041
62.1766
57.9101
53.7142
49.6728
45.8422
42.2549
38.9306
35.8807
33.1134
30.6301
28.4232
26.4721
24.7443
23.1968
21.7838
20.4617
19.1955
17.9593
16.7384
15.5249
14.3175
13.1163
11.9239
10.7411
9.5696
8.40895
7.2596
6.12036
4.99116
3.87044
2.75787
1.65165
0.551479
83.9126
81.9258
79.506
76.6563
73.4059
69.8129
65.9593
61.9466
57.8812
53.8625
49.9705
46.263
42.7756
39.5294
36.5354
33.7998
31.3225
29.097
27.106
25.3236
23.7141
22.2388
20.8589
19.5421
18.2631
17.0064
15.7629
14.5295
13.3055
12.0924
10.8908
9.70166
8.5245
7.3594
6.20488
5.06063
3.92484
2.79705
1.67537
0.559475
82.7911
80.8218
78.4613
75.7139
72.6054
69.1857
65.5248
61.7093
57.8319
53.9818
50.2339
46.6453
43.2535
40.0815
37.1407
34.4367
31.9686
29.7304
27.7075
25.8789
24.215
22.6833
21.2496
19.8847
18.5643
17.2727
15.9995
14.7406
13.494
12.2605
11.0399
9.83317
8.63938
7.4584
6.28852
5.12918
3.9784
2.83553
1.69863
0.567319
81.7431
79.7926
77.4878
74.8336
71.8531
68.5896
65.1031
61.4683
57.7655
54.0746
50.4645
46.9906
43.6909
40.5899
37.7002
35.0275
32.5708
30.3246
28.2766
26.4092
24.6979
23.1155
21.6323
20.222
18.8619
17.5363
16.234
14.9499
13.681
12.4273
11.188
9.96371
8.75327
7.55638
6.37112
5.19673
4.03105
2.87329
1.72141
0.574999
80.7642
78.8335
76.5808
74.0119
71.1472
68.0247
64.6963
61.2264
57.6853
54.1437
50.6647
47.3008
44.0898
41.0572
38.2168
35.575
33.1314
30.881
28.8134
26.9137
25.1615
23.5339
22.0054
20.5527
19.1547
17.7961
16.4654
15.1567
13.8659
12.5922
11.3345
10.0928
8.86583
7.65308
6.45251
5.26315
4.08272
2.91028
1.7437
0.582507
79.8505
77.9402
75.7365
73.2456
70.4859
67.4909
64.3058
60.9864
57.5941
54.1918
50.8367
47.5779
44.4522
41.4856
38.6931
36.082
33.6526
31.4012
29.3184
27.392
25.6047
23.9372
22.3676
20.8756
19.4416
18.0513
16.693
15.3601
14.0478
12.7546
11.4788
10.22
8.97667
7.74823
6.53248
5.32831
4.13332
2.94643
1.76544
0.58983
78.9986
77.1089
74.9513
72.5318
69.8675
66.988
63.9326
60.7504
57.4949
54.2219
50.9831
47.8241
44.7801
41.8773
39.1312
36.5505
34.1365
31.8863
29.7923
27.844
26.0266
24.324
22.7175
21.1891
19.7215
18.3008
16.9158
15.5594
14.2261
12.9138
11.6202
10.3447
9.08537
7.8415
6.6108
5.39205
4.18274
2.98168
1.78662
0.596956
78.2055
76.3365
74.2219
71.868
69.2905
66.5155
63.5777
60.5202
57.3899
54.2365
51.1064
48.0417
45.0757
42.2342
39.5334
36.9827
34.5848
32.3379
30.2357
28.2695
26.4266
24.6934
23.0538
21.4922
19.9931
18.5437
17.133
15.7537
14.4001
13.0692
11.7583
10.4664
9.19151
7.93256
6.68722
5.45417
4.23085
3.01596
1.80718
0.60387
77.4685
75.62
73.5457
71.252
68.7532
66.0729
63.2417
60.2974
57.2816
54.2382
51.2092
48.2329
45.341
42.5583
39.9013
37.3804
34.9991
32.7572
30.6494
28.6686
26.8041
25.0443
23.3753
21.7836
20.2553
18.7788
17.3436
15.9424
14.5689
13.22
11.8924
10.5847
9.29464
8.02103
6.76145
5.51449
4.27751
3.04917
1.82708
0.610557
76.7854
74.957
72.9202
70.6817
68.2545
65.6599
62.9249
60.0833
57.1717
54.2293
51.2937
48.4002
45.5781
42.8515
40.2368
37.7451
35.381
33.1452
31.034
29.0416
27.1589
25.376
23.6809
22.0621
20.507
19.0052
17.5468
16.1245
14.732
13.3657
12.022
10.699
9.39431
8.10655
6.8332
5.57276
4.32257
3.08121
1.84627
0.616998
76.1542
74.3453
72.3434
70.1553
67.7931
65.2759
62.6279
59.8792
57.0622
54.212
51.3623
48.5456
45.789
43.1155
40.5415
38.0783
35.7315
33.503
31.3903
29.3887
27.4906
25.6878
23.9698
22.3266
20.7471
19.2219
17.7416
16.2993
14.8886
13.5056
12.1464
10.8088
9.49006
8.18873
6.90215
5.62876
4.36586
3.11197
1.86467
0.623173
75.5733
73.783
71.8135
69.6714
67.368
64.9205
62.351
59.686
56.9545
54.1881
51.4172
48.6713
45.9757
43.3522
40.8169
38.3814
36.052
33.8315
31.7186
29.7099
27.7991
25.9792
24.2411
22.5761
20.9745
19.4277
17.9271
16.466
15.038
13.6391
12.265
10.9135
9.58142
8.26716
6.96797
5.68223
4.40718
3.14133
1.88223
0.62906
75.0413
73.2687
71.3291
69.2287
66.9783
64.5936
62.0943
59.5045
56.8502
54.1596
51.4603
48.7793
46.1401
43.5634
41.0646
38.6556
36.3433
34.1315
32.0196
30.0056
28.0842
26.2496
24.494
22.8098
21.1882
19.6218
18.1023
16.6236
15.1794
13.7654
12.3774
11.0126
9.66792
8.34143
7.03032
5.73288
4.44634
3.16915
1.89886
0.634635
74.557
72.8012
70.8888
68.8262
66.6233
64.2948
61.8583
59.3358
56.7505
54.1281
51.4935
48.8716
46.2841
43.7505
41.2859
38.9021
36.6065
34.4036
32.2937
30.2758
28.3457
26.4986
24.7277
23.0266
21.3873
19.8031
18.2664
16.7714
15.312
13.884
12.4828
11.1056
9.74908
8.41114
7.08886
5.78045
4.48312
3.19528
1.91448
0.63987
74.1199
72.3795
70.4918
68.4631
66.3026
64.024
61.6433
59.1804
56.6566
54.095
51.5184
48.9497
46.4091
43.9151
41.4821
39.122
36.8424
34.6483
32.5411
30.5205
28.5833
26.7257
24.9417
23.2257
21.5707
19.9706
18.4183
16.9085
15.4352
13.9941
12.5807
11.192
9.82443
8.47587
7.14323
5.82465
4.51729
3.21956
1.929
0.644737
73.7291
72.003
70.1375
68.1389
66.0159
63.7812
61.4496
59.0392
56.5695
54.0617
51.5366
49.0153
46.5168
44.0585
41.6543
39.3161
37.0515
34.8662
32.7621
30.7398
28.7969
26.9304
25.1352
23.4064
21.7376
20.1233
18.5572
17.034
15.548
14.095
12.6704
11.2711
9.89348
8.53518
7.19306
5.86517
4.54865
3.24185
1.94233
0.649204
73.3847
71.6713
69.8255
67.8533
65.7631
63.5665
61.2776
58.9129
56.4903
54.0294
51.5494
49.0698
46.6085
44.182
41.8037
39.4852
37.2345
35.0575
32.9568
30.9336
28.9862
27.1123
25.3075
23.5677
21.887
20.2605
18.6821
17.147
15.6496
14.1859
12.7513
11.3425
9.95574
8.58867
7.238
5.90172
4.57693
3.26196
1.95436
0.653238
73.0865
71.3844
69.5557
67.6063
65.5441
63.3804
61.1279
58.8023
56.42
53.9993
51.558
49.1145
46.6854
44.2866
41.931
39.6301
37.3918
35.2225
33.1251
31.1015
29.1506
27.2706
25.458
23.7089
22.0181
20.381
18.792
17.2466
15.7393
14.2662
12.8227
11.4054
10.0107
8.63588
7.27767
5.934
4.60192
3.27973
1.965
0.656806
72.835
71.1426
69.3283
67.398
65.3594
63.223
61.001
58.708
56.3594
53.9723
51.5635
49.1502
46.7484
44.3731
42.0369
39.751
37.5236
35.3611
33.2669
31.2433
29.2897
27.4049
25.5858
23.829
22.1298
20.4839
18.8861
17.3319
15.8162
14.3351
12.8839
11.4595
10.0578
8.67637
7.31171
5.96169
4.62336
3.29498
1.97413
0.659879
72.6309
70.9464
69.1439
67.2291
65.2095
63.0951
60.8976
58.6309
56.3094
53.9494
51.5668
49.1781
46.7983
44.4422
42.1218
39.8484
37.63
35.4732
33.3819
31.3584
29.4028
27.5143
25.6901
23.9272
22.2213
20.5684
18.9633
17.402
15.8795
14.3918
12.9344
11.504
10.0966
8.7097
7.33972
5.98448
4.641
3.30753
1.98165
0.662422
72.4751
70.7968
69.0033
67.1003
65.0951
62.9975
60.8186
58.5717
56.2709
53.9314
51.5688
49.1987
46.8358
44.4942
42.1861
39.9222
37.7108
35.5585
33.4694
31.4463
29.4893
27.598
25.77
24.0025
22.2916
20.6332
19.0228
17.4561
15.9282
14.4355
12.9732
11.5383
10.1266
8.7354
7.36131
6.00204
4.65459
3.3172
1.98744
0.664394
72.3691
70.695
68.9077
67.0128
65.0174
62.9311
60.7648
58.5314
56.2444
53.919
51.5698
49.2124
46.8609
44.5294
42.2296
39.9722
37.7656
35.6164
33.5289
31.506
29.5481
27.655
25.8244
24.0539
22.3395
20.6776
19.0634
17.493
15.9616
14.4654
12.9999
11.5617
10.1471
8.75299
7.37609
6.01406
4.66389
3.3238
1.99139
0.66574
72.3149
70.6429
68.8588
66.968
64.9776
62.8971
60.7372
58.5107
56.2309
53.9125
51.5703
49.2193
46.8738
44.5473
42.2518
39.9978
37.7936
35.6461
33.5594
31.5366
29.5782
27.6842
25.8523
24.0802
22.3641
20.7003
19.0843
17.512
15.9787
14.4807
13.0135
11.5738
10.1576
8.76201
7.38368
6.02022
4.66866
3.32716
1.9934
0.666413
)
;

boundaryField
{
    top
    {
        type            symmetryPlane;
    }
    bottom
    {
        type            symmetryPlane;
    }
    plate
    {
        type            zeroGradient;
    }
    left
    {
        type            zeroGradient;
    }
    right
    {
        type            fixedValue;
        value           uniform 0;
    }
    frontAndBack
    {
        type            empty;
    }
}


// ************************************************************************* //
