/*--------------------------------*- C++ -*----------------------------------*\
| =========                 |                                                 |
| \\      /  F ield         | OpenFOAM: The Open Source CFD Toolbox           |
|  \\    /   O peration     | Version:  v2012                                 |
|   \\  /    A nd           | Website:  www.openfoam.com                      |
|    \\/     M anipulation  |                                                 |
\*---------------------------------------------------------------------------*/
FoamFile
{
    version     2.0;
    format      ascii;
    class       volScalarField;
    location    "0.25";
    object      p;
}
// * * * * * * * * * * * * * * * * * * * * * * * * * * * * * * * * * * * * * //

dimensions      [0 2 -2 0 0 0 0];


internalField   nonuniform List<scalar> 
9600
(
28.5754
28.6287
28.6541
28.6631
28.6627
28.6655
28.6718
28.6852
28.7035
28.7294
28.7596
28.7971
28.8375
28.8822
28.9258
28.975
29.0249
29.0875
29.1529
29.2337
29.3149
29.414
29.5151
29.6366
29.7623
29.9109
30.0692
30.2594
30.4673
30.7153
30.988
31.3173
31.6844
32.1391
32.6642
33.3278
34.1263
35.1642
36.4509
38.046
28.6055
28.6198
28.637
28.6472
28.6604
28.6665
28.6788
28.6875
28.7073
28.7272
28.7605
28.794
28.8382
28.8796
28.9269
28.9728
29.0259
29.0852
29.1536
29.2313
29.3152
29.4113
29.515
29.6332
29.7622
29.9064
30.0692
30.2529
30.4672
30.7072
30.9888
31.3067
31.6864
32.1271
32.6645
33.2995
34.0758
34.9776
35.9943
36.9721
28.6229
28.6141
28.6234
28.6355
28.6564
28.668
28.6835
28.6914
28.7097
28.7268
28.7596
28.7921
28.8367
28.8779
28.9258
28.9713
29.0249
29.0836
29.152
29.2298
29.3132
29.4092
29.5126
29.6308
29.7587
29.9037
30.0646
30.2492
30.4602
30.7016
30.9802
31.2986
31.6727
32.1088
32.627
33.2309
33.93
34.7052
35.5162
36.2536
28.633
28.612
28.6152
28.628
28.6514
28.6673
28.6847
28.6939
28.711
28.7272
28.7581
28.7905
28.8344
28.8756
28.9239
28.9688
29.0231
29.0803
29.1495
29.2241
29.3109
29.4042
29.5095
29.6255
29.7541
29.8977
30.0579
30.2418
30.4498
30.6927
30.9645
31.2844
31.6449
32.0748
32.5578
33.1295
33.7434
34.4252
35.0855
35.6927
28.6384
28.6109
28.6108
28.6226
28.6466
28.6646
28.6834
28.6943
28.7113
28.7274
28.7565
28.789
28.8316
28.8734
28.9208
28.9665
29.0195
29.0778
29.145
29.2215
29.3053
29.4006
29.5027
29.6208
29.7454
29.8916
30.0469
30.2329
30.4355
30.6794
30.9433
31.2609
31.6068
32.0223
32.4729
33.0002
33.5482
34.141
34.6936
35.1839
28.6398
28.6095
28.6085
28.6184
28.6427
28.6608
28.6816
28.6925
28.711
28.7264
28.7553
28.7857
28.8288
28.8707
28.9168
28.9641
29.0143
29.0753
29.1387
29.2187
29.2972
29.3969
29.4925
29.6157
29.7331
29.8842
30.032
30.2217
30.4169
30.6607
30.9168
31.2268
31.5594
31.9525
32.3756
32.8523
33.3485
33.8564
34.3288
34.7173
28.641
28.6071
28.605
28.6152
28.6392
28.6584
28.6787
28.691
28.7084
28.7256
28.7522
28.7846
28.8243
28.8685
28.9112
28.9618
29.0077
29.0723
29.1308
29.2146
29.2883
29.3912
29.4824
29.6073
29.7216
29.872
30.018
30.204
30.3976
30.6336
30.8869
31.1811
31.5046
31.8676
32.2685
32.6927
33.1452
33.5765
33.9855
34.2916
28.6422
28.6035
28.6
28.6128
28.6357
28.6572
28.675
28.6899
28.7037
28.7246
28.7474
28.7836
28.818
28.8664
28.9036
28.9585
28.9998
29.0676
29.1231
29.2081
29.2802
29.382
29.4732
29.5949
29.7108
29.855
30.0038
30.1804
30.3767
30.5988
30.8521
31.1257
31.4413
31.7727
32.1514
32.5281
32.9378
33.3067
33.6588
33.9047
28.6404
28.6027
28.5939
28.6099
28.6313
28.6567
28.6712
28.6891
28.6981
28.7223
28.742
28.7814
28.8127
28.8627
28.8984
28.9532
28.9946
29.06
29.1169
29.1982
29.273
29.3695
29.4646
29.5789
29.6994
29.8342
29.9874
30.1526
30.3512
30.5593
30.8099
31.0647
31.3685
31.6724
32.0247
32.3628
32.7277
33.0489
33.3459
33.5506
28.632
28.6064
28.5913
28.6062
28.6238
28.6546
28.668
28.6882
28.6943
28.7182
28.7371
28.7762
28.8089
28.8567
28.8945
28.9455
28.99
29.0501
29.1109
29.1859
29.2654
29.3545
29.4545
29.5609
29.6853
29.8119
29.9666
30.1232
30.3196
30.5173
30.7598
31.0003
31.2865
31.5689
31.8899
32.1981
32.517
32.8017
33.047
33.2217
28.6171
28.6127
28.5942
28.6024
28.6151
28.6481
28.6653
28.686
28.693
28.7124
28.7327
28.7683
28.8055
28.849
28.8911
28.9362
28.9849
29.0389
29.1037
29.1727
29.2555
29.3394
29.4412
29.5429
29.6671
29.7893
29.9409
30.0927
30.2821
30.4728
30.7026
30.9322
31.1968
31.4621
31.75
32.0334
32.3088
32.563
32.7633
32.9114
28.5988
28.6169
28.6023
28.6003
28.6076
28.6372
28.6616
28.6821
28.6936
28.7061
28.7284
28.7585
28.8005
28.8405
28.8867
28.927
28.978
29.0279
29.0938
29.1602
29.2426
29.3248
29.4245
29.5248
29.6451
29.7656
29.9112
30.0598
30.2398
30.4248
30.64
30.8599
31.1019
31.3518
31.6077
31.8683
32.1055
32.3309
32.4945
32.6157
28.583
28.6156
28.6119
28.6005
28.6022
28.6233
28.6545
28.6763
28.6945
28.7017
28.7239
28.7484
28.7927
28.8318
28.8801
28.9193
28.9692
29.0179
29.0812
29.1477
29.227
29.3099
29.4053
29.5057
29.6205
29.7398
29.8783
30.0237
30.194
30.3728
30.5733
30.7831
31.0038
31.2376
31.4654
31.7026
31.9082
32.1041
32.2399
32.3334
28.5733
28.6082
28.6159
28.6029
28.6001
28.6097
28.644
28.6685
28.6933
28.6996
28.7195
28.7398
28.7822
28.8227
28.871
28.9124
28.9589
29.0083
29.0668
29.1345
29.2096
29.2936
29.3848
29.4843
29.5945
29.7108
29.8433
29.984
30.1452
30.317
30.5033
30.7023
30.9033
31.1201
31.3239
31.5364
31.7167
31.883
31.9973
32.0642
28.5697
28.5948
28.6131
28.6048
28.601
28.6014
28.6313
28.6582
28.6882
28.6987
28.7154
28.7331
28.77
28.8124
28.8595
28.905
28.948
28.9984
29.0517
29.1196
29.1912
29.2747
29.3635
29.4603
29.5672
29.6792
29.8061
29.9411
30.0933
30.2576
30.4306
30.6177
30.8013
30.9998
31.1835
31.3709
31.5304
31.6686
31.7645
31.8082
28.5705
28.5829
28.6033
28.6033
28.6027
28.5984
28.6195
28.646
28.6789
28.6962
28.7115
28.7283
28.758
28.8012
28.8461
28.8955
28.9367
28.9875
29.0372
29.1026
29.1723
29.2529
29.341
29.4342
29.5384
29.6456
29.7663
29.8956
30.0383
30.195
30.3554
30.53
30.6984
30.8775
31.0442
31.2069
31.3482
31.4614
31.5398
31.5649
28.5719
28.573
28.5901
28.5977
28.6023
28.5991
28.611
28.6339
28.666
28.6904
28.7069
28.7246
28.7477
28.7891
28.8313
28.8832
28.9249
28.9751
29.0235
29.0842
29.1526
29.2291
29.3165
29.4063
29.5074
29.6103
29.7242
29.8476
29.9808
30.129
30.2784
30.4395
30.5946
30.7544
30.9055
31.0459
31.1694
31.2615
31.3223
31.3328
28.5707
28.5657
28.5777
28.5889
28.5982
28.5991
28.6058
28.6239
28.6517
28.6813
28.7005
28.7208
28.7393
28.7768
28.8163
28.8679
28.912
28.9609
29.0098
29.0653
29.132
29.2039
29.2895
29.3769
29.4739
29.5736
29.68
29.7972
29.9214
30.0599
30.1998
30.3467
30.4901
30.6315
30.7672
30.8882
30.9936
31.0686
31.1119
31.1105
28.5667
28.5605
28.5677
28.579
28.5909
28.5967
28.6024
28.6164
28.6384
28.6693
28.6914
28.7151
28.7323
28.7651
28.8017
28.8505
28.8975
28.9449
28.9953
29.0463
29.1101
29.178
29.2599
29.3458
29.4382
29.5349
29.6344
29.7445
29.8604
29.9882
30.1193
30.2526
30.3845
30.5096
30.6295
30.7337
30.8213
30.8816
30.9087
30.8965
28.5604
28.5554
28.5601
28.5695
28.5814
28.5913
28.5981
28.6107
28.6273
28.6563
28.6801
28.7065
28.7255
28.7539
28.7882
28.832
28.8808
28.9274
28.9787
29.0276
29.0872
29.1517
29.2284
29.3124
29.4007
29.4938
29.5877
29.6895
29.7979
29.9147
30.0368
30.1579
30.2776
30.3891
30.4927
30.5825
30.6529
30.6996
30.7127
30.6897
28.5528
28.5495
28.5536
28.5612
28.5713
28.5835
28.5918
28.6051
28.6181
28.6435
28.6673
28.6949
28.7175
28.7429
28.7753
28.8139
28.8622
28.9085
28.9597
29.0083
29.0635
29.1249
29.1958
29.2768
29.3615
29.4503
29.5397
29.6331
29.734
29.8401
29.9525
30.0627
30.1699
30.2694
30.3576
30.4339
30.4887
30.5223
30.5234
30.49
28.5448
28.5427
28.5465
28.5538
28.5617
28.5741
28.5836
28.5981
28.6104
28.6315
28.6545
28.6811
28.7072
28.7316
28.7624
28.7969
28.8421
28.8883
28.9384
28.9876
29.0393
29.0973
29.1628
29.239
29.3206
29.4045
29.4899
29.5756
29.6683
29.7649
29.8665
29.9671
30.0619
30.1504
30.2247
30.2876
30.3291
30.3493
30.3403
30.2969
28.5367
28.5352
28.5383
28.5464
28.5529
28.5643
28.574
28.5891
28.6027
28.6203
28.642
28.6663
28.6945
28.7195
28.749
28.7809
28.8215
28.867
28.9152
28.9648
29.0143
29.0686
29.1297
29.1999
29.2779
29.3569
29.438
29.5172
29.6013
29.6894
29.7797
29.8711
29.954
30.0318
30.0941
30.1439
30.1737
30.1809
30.1628
30.1102
28.5282
28.5275
28.5295
28.5381
28.5445
28.5546
28.5641
28.5784
28.594
28.6097
28.6299
28.6515
28.6796
28.7062
28.7346
28.7651
28.801
28.8445
28.8909
28.9398
28.9882
29.0388
29.0961
29.16
29.2335
29.3078
29.3839
29.4579
29.5333
29.6132
29.6927
29.7745
29.8468
29.9136
29.9655
30.0029
30.0221
30.0174
29.9902
29.9297
28.519
28.5196
28.5205
28.5286
28.536
28.5448
28.5542
28.5666
28.5836
28.5991
28.6177
28.6374
28.6632
28.6912
28.7189
28.7487
28.781
28.8212
28.8658
28.9128
28.9608
29.0079
29.0616
29.1198
29.1875
29.2575
29.3278
29.3974
29.4646
29.5365
29.606
29.6775
29.7404
29.7961
29.8387
29.8647
29.874
29.8586
29.8224
29.7551
28.5093
28.5113
28.5118
28.5182
28.5268
28.535
28.5443
28.5547
28.5714
28.5878
28.6053
28.6239
28.6464
28.6746
28.7021
28.7313
28.7613
28.7973
28.84
28.8844
28.9316
28.976
29.0258
29.0793
29.1405
29.206
29.2704
29.3353
29.3955
29.4592
29.5196
29.5807
29.6346
29.6797
29.7136
29.7293
29.7293
29.7045
29.6594
29.5859
28.4992
28.5021
28.5034
28.5075
28.5165
28.5248
28.5341
28.5433
28.5581
28.5755
28.5924
28.6104
28.6299
28.6566
28.6842
28.7126
28.7414
28.7733
28.8134
28.8551
28.9006
28.9431
28.9887
29.0383
29.0929
29.1535
29.212
29.2717
29.3258
29.3814
29.4337
29.4845
29.5296
29.5647
29.5899
29.5966
29.5877
29.5547
29.5012
29.4217
28.4891
28.4919
28.4946
28.4971
28.5053
28.514
28.5232
28.5322
28.5445
28.562
28.5786
28.5964
28.6139
28.6378
28.6652
28.6926
28.7209
28.7492
28.7861
28.8251
28.8682
28.9091
28.9505
28.9965
29.0449
29.1002
29.1529
29.2068
29.2555
29.3033
29.3482
29.389
29.4256
29.4512
29.4678
29.4664
29.4491
29.409
29.3475
29.2626
28.4791
28.4811
28.4848
28.4871
28.4936
28.5026
28.5116
28.521
28.5311
28.5475
28.5641
28.5815
28.5981
28.6187
28.6452
28.6715
28.6992
28.7251
28.7581
28.7946
28.8346
28.8739
28.9114
28.9535
28.9967
29.0461
29.0934
29.141
29.1844
29.225
29.2629
29.2946
29.3226
29.3394
29.3476
29.3387
29.3134
29.267
29.1982
29.1081
28.469
28.47
28.474
28.4771
28.4819
28.4906
28.4992
28.5091
28.518
28.5324
28.5488
28.5656
28.5822
28.5997
28.6243
28.6494
28.6764
28.7007
28.7297
28.7634
28.7999
28.8375
28.8716
28.9095
28.9479
28.9915
29.0337
29.0746
29.1128
29.1465
29.1777
29.2014
29.2207
29.2293
29.2291
29.2133
29.1807
29.1283
29.0533
28.9581
28.4586
28.4589
28.4623
28.4665
28.4703
28.4782
28.4863
28.4963
28.505
28.5171
28.5329
28.5488
28.5654
28.5809
28.6028
28.6266
28.6523
28.6758
28.701
28.7317
28.7646
28.8
28.831
28.8646
28.8986
28.9364
28.9737
29.0081
29.0408
29.0679
29.0928
29.1093
29.1201
29.1211
29.1125
29.0904
29.0509
28.993
28.9124
28.8123
28.4475
28.4479
28.4502
28.4551
28.4587
28.4655
28.4732
28.4825
28.4916
28.5017
28.5164
28.5313
28.5477
28.562
28.5811
28.6031
28.6271
28.6499
28.6721
28.6993
28.7288
28.7613
28.7897
28.8191
28.8487
28.8809
28.9134
28.9417
28.9685
28.9894
29.008
29.018
29.0211
29.0147
28.9981
28.9698
28.9238
28.8607
28.7753
28.6706
28.4358
28.4367
28.4381
28.4428
28.4467
28.4526
28.4598
28.4682
28.4775
28.4864
28.4996
28.5134
28.529
28.5428
28.5591
28.5792
28.601
28.623
28.6428
28.6666
28.6925
28.7217
28.7478
28.7729
28.7984
28.8251
28.8528
28.8756
28.8963
28.9113
28.9234
28.9277
28.9235
28.9102
28.8859
28.8513
28.7997
28.7314
28.6418
28.5327
28.4235
28.4251
28.4263
28.43
28.4342
28.4394
28.4463
28.4535
28.4626
28.4708
28.4824
28.4951
28.5094
28.5228
28.537
28.5549
28.5744
28.5951
28.613
28.6335
28.6559
28.6815
28.7051
28.7263
28.7477
28.769
28.7919
28.8096
28.8244
28.8336
28.8391
28.8381
28.8273
28.8075
28.7762
28.7351
28.6784
28.6051
28.5117
28.3986
28.411
28.413
28.4143
28.417
28.4212
28.4258
28.4323
28.4387
28.4471
28.4548
28.4649
28.4765
28.4894
28.5022
28.5146
28.5302
28.5474
28.5663
28.5826
28.6
28.6191
28.6408
28.6617
28.6794
28.6967
28.7129
28.7307
28.7437
28.7529
28.7565
28.7556
28.7493
28.7325
28.7066
28.6688
28.6212
28.5597
28.4816
28.3849
28.268
28.3983
28.4003
28.402
28.404
28.4077
28.4119
28.4179
28.4238
28.4312
28.4384
28.4471
28.4576
28.4689
28.4808
28.4917
28.5052
28.5201
28.5368
28.5515
28.5661
28.582
28.5997
28.6177
28.6321
28.6454
28.6569
28.6694
28.678
28.6818
28.6801
28.6729
28.6611
28.639
28.6075
28.5637
28.5099
28.4436
28.361
28.2611
28.141
28.3856
28.3871
28.3892
28.3909
28.3939
28.3976
28.403
28.4085
28.4149
28.4214
28.4289
28.4383
28.4482
28.4589
28.4684
28.4799
28.4925
28.5068
28.5198
28.5318
28.5447
28.5585
28.5732
28.5845
28.5939
28.6009
28.6082
28.6125
28.6112
28.6045
28.5913
28.5739
28.5468
28.51
28.461
28.401
28.3301
28.2433
28.1403
28.0175
28.3727
28.3736
28.3757
28.3776
28.38
28.3831
28.3877
28.3929
28.3985
28.4042
28.4104
28.4185
28.4272
28.4365
28.4447
28.4541
28.4646
28.4765
28.4876
28.4971
28.507
28.5173
28.5285
28.5365
28.5422
28.5451
28.5473
28.5471
28.5411
28.5296
28.5109
28.4878
28.456
28.414
28.3605
28.2948
28.2191
28.1284
28.0223
27.8974
28.3596
28.3601
28.3617
28.3638
28.3659
28.3684
28.3721
28.3767
28.3817
28.3867
28.3917
28.3984
28.4058
28.4138
28.4206
28.428
28.4364
28.4458
28.455
28.462
28.469
28.4759
28.4835
28.4885
28.4905
28.4895
28.4868
28.4821
28.4715
28.4554
28.4316
28.403
28.3665
28.3197
28.262
28.1912
28.1108
28.0164
27.9071
27.7803
28.3462
28.3464
28.3475
28.3496
28.3516
28.3536
28.3563
28.3601
28.3646
28.3688
28.3727
28.3779
28.384
28.3907
28.3962
28.4016
28.4079
28.4149
28.422
28.4267
28.4309
28.4345
28.4385
28.4403
28.4387
28.434
28.4267
28.4175
28.4026
28.382
28.3537
28.3195
28.2784
28.227
28.1653
28.0902
28.0049
27.9072
27.7946
27.6662
28.3323
28.3326
28.3332
28.3349
28.3369
28.3385
28.3405
28.3433
28.3471
28.3507
28.3536
28.3573
28.3619
28.3672
28.3715
28.375
28.3792
28.3838
28.3887
28.3912
28.3926
28.393
28.3935
28.3922
28.3871
28.3788
28.367
28.3534
28.3343
28.3093
28.2769
28.2374
28.1919
28.1361
28.0704
27.9916
27.9017
27.8007
27.685
27.5548
28.3181
28.3187
28.3189
28.32
28.3218
28.3232
28.3245
28.3263
28.3292
28.3322
28.3343
28.3366
28.3395
28.3434
28.3465
28.3483
28.3503
28.3525
28.3551
28.3555
28.3542
28.3516
28.3485
28.3441
28.3356
28.3238
28.308
28.2899
28.2669
28.2375
28.2012
28.1569
28.1068
28.047
27.9773
27.8953
27.8012
27.6968
27.5783
27.4461
28.3037
28.3044
28.3046
28.3049
28.3064
28.3075
28.3084
28.3093
28.311
28.3133
28.3146
28.3157
28.317
28.3193
28.3212
28.3214
28.3213
28.321
28.3213
28.3197
28.3157
28.3103
28.3037
28.2961
28.2845
28.2692
28.2496
28.2271
28.2003
28.1668
28.1266
28.0781
28.0234
27.9598
27.8861
27.8011
27.7033
27.5955
27.4745
27.34
28.2891
28.2898
28.2901
28.2898
28.2907
28.2915
28.2921
28.2922
28.2927
28.2942
28.2947
28.2948
28.2945
28.295
28.2956
28.2942
28.2923
28.2896
28.2874
28.2837
28.2773
28.2691
28.2591
28.2483
28.2337
28.2149
28.1919
28.165
28.1345
28.0971
28.053
28.0008
27.9415
27.8744
27.7969
27.7089
27.6081
27.4968
27.3734
27.2368
28.2745
28.275
28.2754
28.2748
28.2749
28.2753
28.2755
28.2751
28.2743
28.2748
28.2745
28.2736
28.272
28.2705
28.2697
28.267
28.2632
28.2583
28.2534
28.2477
28.2389
28.2281
28.2149
28.2007
28.1832
28.1611
28.1348
28.1038
28.0695
28.0286
27.9807
27.925
27.8615
27.7907
27.7098
27.6187
27.5153
27.4008
27.2751
27.1364
28.2598
28.2599
28.2604
28.2597
28.259
28.259
28.2585
28.2578
28.256
28.2552
28.2541
28.2522
28.2495
28.2461
28.2436
28.2395
28.2341
28.2272
28.2195
28.2117
28.2006
28.1873
28.1712
28.1534
28.1332
28.1078
28.0783
28.0437
28.0053
27.9612
27.9096
27.8506
27.7833
27.7088
27.6248
27.5306
27.4248
27.3074
27.1793
27.0388
28.245
28.2448
28.2451
28.2445
28.2431
28.2425
28.2414
28.2403
28.2377
28.2356
28.2336
28.2306
28.2269
28.2219
28.2175
28.212
28.2048
28.1962
28.1859
28.1756
28.1625
28.1466
28.1279
28.1066
28.0835
28.0552
28.0225
27.9847
27.9423
27.8949
27.8399
27.7776
27.7069
27.6287
27.5418
27.4446
27.3365
27.2167
27.0861
26.9439
28.2302
28.2296
28.2295
28.2291
28.2273
28.2259
28.2242
28.2225
28.2195
28.216
28.213
28.2089
28.2042
28.1978
28.1913
28.1845
28.1756
28.1652
28.1526
28.1397
28.1246
28.1062
28.085
28.0606
28.0343
28.0033
27.9675
27.9266
27.8805
27.8297
27.7716
27.7061
27.6324
27.5506
27.4608
27.3609
27.2504
27.1285
26.9956
26.8517
28.2152
28.2145
28.2139
28.2135
28.2115
28.2094
28.207
28.2045
28.2012
28.1965
28.1923
28.1871
28.1813
28.1738
28.1654
28.1569
28.1464
28.1342
28.1197
28.1041
28.0869
28.0661
28.0425
28.0152
27.9857
27.9521
27.9132
27.8695
27.82
27.7658
27.7048
27.6361
27.5596
27.4746
27.3818
27.2794
27.1665
27.0427
26.9078
26.7622
28.2001
28.1995
28.1983
28.1976
28.1956
28.1929
28.1898
28.1865
28.1827
28.1772
28.1716
28.1654
28.1584
28.1499
28.1397
28.1293
28.1173
28.1034
28.087
28.0688
28.0494
28.0265
28.0004
27.9706
27.9378
27.9017
27.8599
27.8133
27.7608
27.7032
27.6393
27.5677
27.4884
27.4006
27.3048
27.2
27.0849
26.9593
26.8226
26.6752
28.1849
28.1844
28.1829
28.1817
28.1797
28.1764
28.1728
28.1684
28.1641
28.158
28.1511
28.1437
28.1354
28.1259
28.1143
28.102
28.0884
28.0728
28.0547
28.0342
28.0123
27.9873
27.9588
27.9266
27.8909
27.8519
27.8076
27.7581
27.7028
27.642
27.5753
27.5009
27.419
27.3285
27.2299
27.1228
27.0056
26.8782
26.7399
26.591
28.1696
28.1693
28.1677
28.1658
28.1636
28.16
28.1558
28.1506
28.1453
28.1388
28.1308
28.1222
28.1126
28.102
28.0892
28.075
28.0597
28.0423
28.0226
28
27.9756
27.9486
27.9179
27.8833
27.8448
27.8031
27.7563
27.7041
27.6461
27.5823
27.5128
27.4358
27.3512
27.2585
27.1572
27.0477
26.9286
26.7994
26.6598
26.5094
28.1544
28.1541
28.1526
28.15
28.1474
28.1436
28.1388
28.133
28.1266
28.1196
28.1107
28.1009
28.09
28.0781
28.0642
28.0483
28.0312
28.0122
27.9908
27.9664
27.9396
27.9104
27.8775
27.8408
27.7997
27.7552
27.706
27.6512
27.5907
27.5242
27.4519
27.3724
27.2853
27.1903
27.0867
26.9749
26.8539
26.723
26.5821
26.4304
28.1394
28.1389
28.1375
28.1346
28.1313
28.1272
28.122
28.1155
28.1081
28.1003
28.0908
28.0798
28.0677
28.0544
28.0394
28.0221
28.0032
27.9825
27.9594
27.9333
27.9043
27.8728
27.8379
27.799
27.7556
27.7084
27.6568
27.5996
27.5366
27.4675
27.3925
27.3107
27.2212
27.124
27.0183
26.9044
26.7815
26.649
26.5067
26.354
28.1246
28.1238
28.1223
28.1193
28.1154
28.1109
28.1052
28.0982
28.09
28.0811
28.0709
28.059
28.0456
28.031
28.0148
27.9963
27.9756
27.9532
27.9285
27.9007
27.8697
27.8359
27.799
27.758
27.7125
27.6627
27.6087
27.5492
27.4839
27.4124
27.3349
27.2508
27.1591
27.0596
26.9519
26.836
26.7114
26.5773
26.4338
26.2801
28.1099
28.1089
28.1071
28.1042
28.0997
28.0947
28.0885
28.0811
28.0721
28.0621
28.0512
28.0384
28.0239
28.008
27.9905
27.9708
27.9486
27.9244
27.898
27.8686
27.8358
27.7999
27.7609
27.7179
27.6704
27.6183
27.5618
27.5001
27.4326
27.3588
27.2789
27.1926
27.0988
26.9973
26.8877
26.77
26.6437
26.5081
26.3633
26.2088
28.0953
28.0942
28.0921
28.0891
28.0844
28.0787
28.072
28.064
28.0546
28.0436
28.0317
28.0181
28.0026
27.9854
27.9665
27.9457
27.9222
27.8963
27.8681
27.8371
27.8027
27.7648
27.7236
27.6788
27.6293
27.575
27.5162
27.4524
27.3828
27.3069
27.2247
27.1362
27.0404
26.9371
26.8256
26.7061
26.5783
26.4414
26.2953
26.1398
28.0809
28.0797
28.0773
28.0741
28.0692
28.063
28.0558
28.0472
28.0372
28.0254
28.0125
27.9981
27.9816
27.9633
27.9431
27.9209
27.8962
27.8688
27.839
27.8063
27.7703
27.7306
27.6874
27.6406
27.5892
27.533
27.472
27.406
27.3345
27.2566
27.1722
27.0816
26.984
26.8789
26.7657
26.6445
26.5152
26.377
26.2298
26.0734
28.0666
28.0655
28.0629
28.0593
28.0543
28.0476
28.0398
28.0307
28.02
28.0077
27.9937
27.9784
27.961
27.9416
27.9202
27.8967
27.8708
27.842
27.8105
27.7762
27.7386
27.6974
27.6522
27.6034
27.5503
27.4922
27.4292
27.3611
27.2876
27.2079
27.1216
27.029
26.9295
26.8227
26.708
26.5852
26.4545
26.3151
26.1668
26.0095
28.0527
28.0515
28.0488
28.0448
28.0396
28.0325
28.0242
28.0145
28.0032
27.9903
27.9754
27.9591
27.9409
27.9205
27.8979
27.8731
27.8459
27.8159
27.7829
27.747
27.7078
27.665
27.6182
27.5674
27.5125
27.4528
27.3878
27.3177
27.2423
27.1609
27.0728
26.9783
26.8771
26.7687
26.6525
26.5282
26.3961
26.2557
26.1064
25.9482
28.039
28.0378
28.035
28.0307
28.0251
28.0178
28.009
27.9987
27.9867
27.9732
27.9576
27.9404
27.9212
27.8999
27.8763
27.8501
27.8217
27.7905
27.7561
27.7187
27.6779
27.6336
27.5852
27.5327
27.476
27.4146
27.348
27.276
27.1987
27.1156
27.0259
26.9296
26.8267
26.7167
26.5992
26.4735
26.3401
26.1986
26.0484
25.8895
28.0257
28.0244
28.0215
28.0169
28.011
28.0034
27.9942
27.9833
27.9707
27.9566
27.9403
27.9222
27.9021
27.8798
27.8552
27.828
27.7983
27.7658
27.7302
27.6913
27.6491
27.6033
27.5534
27.4992
27.4409
27.3778
27.3095
27.2359
27.1568
27.072
26.9808
26.8829
26.7784
26.6669
26.5481
26.4212
26.2865
26.144
25.993
25.8333
28.0128
28.0114
28.0084
28.0036
27.9973
27.9894
27.9798
27.9684
27.9552
27.9404
27.9235
27.9046
27.8836
27.8604
27.8348
27.8065
27.7756
27.742
27.7051
27.665
27.6213
27.574
27.5228
27.4671
27.4071
27.3424
27.2726
27.1975
27.1167
27.0302
26.9376
26.8383
26.7322
26.6193
26.4992
26.3713
26.2354
26.0919
25.9401
25.7798
28.0003
27.9988
27.9956
27.9907
27.9841
27.9759
27.9658
27.954
27.9403
27.9247
27.9073
27.8876
27.8658
27.8416
27.8151
27.7859
27.7539
27.719
27.681
27.6396
27.5946
27.5459
27.4933
27.4363
27.3747
27.3085
27.2373
27.1607
27.0784
26.9904
26.8963
26.7957
26.6883
26.574
26.4527
26.3237
26.1869
26.0423
25.8897
25.7288
27.9882
27.9866
27.9833
27.9783
27.9714
27.9628
27.9524
27.9401
27.9259
27.9097
27.8916
27.8712
27.8486
27.8236
27.7962
27.7661
27.733
27.697
27.6579
27.6154
27.5692
27.5191
27.4652
27.4069
27.3439
27.2762
27.2036
27.1256
27.0419
26.9525
26.8571
26.7551
26.6465
26.5309
26.4084
26.2786
26.1408
25.9953
25.842
25.6805
27.9766
27.975
27.9716
27.9663
27.9592
27.9503
27.9395
27.9268
27.9121
27.8953
27.8766
27.8556
27.8322
27.8064
27.7781
27.7471
27.7131
27.6761
27.6359
27.5922
27.5449
27.4936
27.4384
27.3788
27.3146
27.2456
27.1716
27.0923
27.0074
26.9166
26.8198
26.7167
26.6069
26.4903
26.3666
26.2358
26.0972
25.9509
25.7969
25.6348
27.9655
27.9639
27.9603
27.9549
27.9475
27.9384
27.9272
27.914
27.8989
27.8816
27.8623
27.8406
27.8166
27.7901
27.7609
27.7291
27.6942
27.6562
27.6149
27.5702
27.5218
27.4694
27.413
27.3523
27.2868
27.2166
27.1414
27.0608
26.9747
26.8827
26.7847
26.6805
26.5696
26.4519
26.3272
26.1955
26.0562
25.9091
25.7544
25.5918
27.955
27.9533
27.9496
27.944
27.9365
27.927
27.9155
27.902
27.8864
27.8687
27.8487
27.8265
27.8018
27.7746
27.7446
27.712
27.6763
27.6374
27.5952
27.5495
27.5001
27.4466
27.389
27.3272
27.2607
27.1893
27.1129
27.0312
26.944
26.8509
26.7518
26.6465
26.5346
26.416
26.2903
26.1577
26.0177
25.87
25.7147
25.5516
27.9451
27.9433
27.9396
27.9338
27.926
27.9163
27.9045
27.8906
27.8747
27.8564
27.836
27.8131
27.7879
27.76
27.7294
27.6959
27.6595
27.6197
27.5766
27.53
27.4796
27.4252
27.3667
27.3038
27.2362
27.1638
27.0864
27.0036
26.9153
26.8212
26.721
26.6147
26.5019
26.3825
26.256
26.1225
25.9818
25.8336
25.6777
25.5141
27.9358
27.934
27.9301
27.9242
27.9163
27.9063
27.8942
27.88
27.8636
27.845
27.8241
27.8007
27.7749
27.7464
27.7151
27.681
27.6437
27.6032
27.5594
27.5119
27.4606
27.4054
27.3458
27.282
27.2135
27.1401
27.0617
26.9779
26.8887
26.7936
26.6926
26.5853
26.4717
26.3514
26.2242
26.09
25.9486
25.7998
25.6435
25.4795
27.9272
27.9253
27.9214
27.9153
27.9072
27.897
27.8847
27.8701
27.8534
27.8344
27.813
27.7892
27.7628
27.7338
27.7019
27.6671
27.6292
27.588
27.5434
27.4951
27.4431
27.387
27.3266
27.2619
27.1926
27.1183
27.039
26.9543
26.8642
26.7683
26.6664
26.5583
26.4439
26.3228
26.195
26.0601
25.9182
25.7688
25.6121
25.4477
27.9193
27.9173
27.9133
27.9072
27.8989
27.8885
27.8759
27.8611
27.8441
27.8247
27.8029
27.7787
27.7518
27.7223
27.6899
27.6544
27.616
27.5741
27.5288
27.4798
27.427
27.3702
27.3091
27.2436
27.1734
27.0984
27.0182
26.9328
26.8418
26.7452
26.6425
26.5337
26.4186
26.2968
26.1684
26.0329
25.8904
25.7407
25.5835
25.4188
27.9121
27.9101
27.906
27.8998
27.8914
27.8808
27.868
27.8529
27.8356
27.8159
27.7938
27.7691
27.7418
27.7118
27.679
27.643
27.604
27.5616
27.5156
27.466
27.4126
27.3551
27.2933
27.227
27.1562
27.0804
26.9996
26.9134
26.8217
26.7244
26.6211
26.5116
26.3958
26.2735
26.1445
26.0085
25.8655
25.7154
25.5579
25.3929
27.9057
27.9037
27.8995
27.8932
27.8847
27.8739
27.8609
27.8456
27.828
27.8081
27.7856
27.7607
27.7329
27.7026
27.6693
27.6328
27.5933
27.5504
27.5039
27.4538
27.3997
27.3417
27.2793
27.2124
27.1409
27.0645
26.983
26.8963
26.8039
26.706
26.6021
26.492
26.3757
26.2528
26.1233
25.987
25.8435
25.693
25.5352
25.3699
27.9001
27.8981
27.8939
27.8875
27.8788
27.8679
27.8548
27.8393
27.8215
27.8012
27.7785
27.7533
27.7252
27.6945
27.6608
27.624
27.584
27.5407
27.4937
27.4431
27.3886
27.33
27.2671
27.1997
27.1277
27.0507
26.9687
26.8814
26.7885
26.69
26.5856
26.475
26.3583
26.2349
26.105
25.9682
25.8245
25.6737
25.5155
25.3501
27.8954
27.8934
27.8891
27.8826
27.8739
27.8628
27.8495
27.8339
27.8159
27.7954
27.7725
27.747
27.7187
27.6876
27.6536
27.6165
27.5762
27.5324
27.4851
27.4341
27.3791
27.3201
27.2568
27.1889
27.1165
27.039
26.9566
26.8688
26.7755
26.6766
26.5717
26.4607
26.3435
26.2198
26.0895
25.9525
25.8084
25.6573
25.499
25.3333
27.8916
27.8895
27.8852
27.8787
27.8698
27.8587
27.8453
27.8295
27.8114
27.7907
27.7676
27.7419
27.7134
27.682
27.6478
27.6104
27.5698
27.5257
27.4781
27.4268
27.3715
27.3121
27.2484
27.1802
27.1074
27.0296
26.9467
26.8586
26.7649
26.6656
26.5604
26.4491
26.3316
26.2076
26.077
25.9397
25.7954
25.6441
25.4856
25.3198
27.8886
27.8866
27.8823
27.8756
27.8668
27.8556
27.842
27.8262
27.8079
27.7872
27.7639
27.738
27.7093
27.6778
27.6433
27.6058
27.5649
27.5207
27.4728
27.4212
27.3657
27.306
27.2421
27.1736
27.1004
27.0224
26.9393
26.8508
26.7569
26.6573
26.5519
26.4403
26.3225
26.1983
26.0675
25.93
25.7855
25.634
25.4754
25.3095
27.8867
27.8846
27.8803
27.8736
27.8647
27.8535
27.8399
27.8239
27.8056
27.7848
27.7614
27.7353
27.7066
27.675
27.6403
27.6027
27.5616
27.5172
27.4692
27.4174
27.3618
27.3019
27.2378
27.1692
27.0958
27.0175
26.9342
26.8456
26.7515
26.6517
26.5461
26.4344
26.3164
26.1921
26.0611
25.9234
25.7789
25.6272
25.4685
25.3026
27.8856
27.8836
27.8793
27.8726
27.8636
27.8524
27.8387
27.8228
27.8044
27.7835
27.7601
27.734
27.7052
27.6735
27.6388
27.6011
27.56
27.5155
27.4674
27.4155
27.3598
27.2998
27.2356
27.1669
27.0934
27.0151
26.9317
26.8429
26.7488
26.6488
26.5432
26.4314
26.3133
26.1889
26.0579
25.9201
25.7755
25.6238
25.4651
25.2991
39.6322
39.1427
37.3117
35.3379
33.6433
32.3064
31.2504
30.4057
29.6935
29.0832
28.5329
28.044
27.5788
27.1468
26.713
26.2891
25.8553
25.4213
24.981
24.5354
24.0922
23.6404
23.1967
22.7433
22.2961
21.8377
21.3826
20.9114
20.4496
19.9532
19.4938
18.9559
18.5038
17.917
17.4569
16.8462
16.3373
15.7451
15.1534
14.5711
13.9197
13.3034
12.6035
11.9861
11.1551
10.6094
9.64526
9.08152
8.1482
7.41604
6.58386
5.72703
5.04553
3.9574
3.57763
2.34684
1.94475
1.02144
0.375974
0.0978854
-1.04776
-0.701207
-1.69362
-1.8045
-1.56787
-2.57509
-1.62842
-2.0742
-2.47198
-1.44497
-2.19973
-1.86069
-0.894383
-1.45017
-0.873706
-0.243668
-0.686739
-0.563822
-0.121379
-0.0111271
37.6469
37.5853
36.683
35.2356
33.682
32.3245
31.1914
30.3159
29.5777
28.9988
28.4439
27.992
27.5109
27.1061
26.6508
26.2488
25.7988
25.3784
24.9342
24.4877
24.0563
23.5858
23.1685
22.6822
22.2698
21.7738
21.3555
20.8467
20.4241
19.8868
19.4728
18.8925
18.4791
17.8744
17.4133
16.8397
16.2704
15.7597
15.0839
14.5844
13.8581
13.3267
12.5376
12.0191
11.1101
10.6063
9.67994
9.00988
8.25489
7.33049
6.7194
5.63682
5.16656
3.94344
3.56716
2.54178
1.80048
1.31818
0.195759
0.255392
-0.902602
-0.850523
-1.24152
-2.13638
-1.40292
-2.30208
-2.01323
-1.61236
-2.57068
-1.62366
-1.69019
-2.1924
-0.942787
-1.01118
-1.27788
-0.24134
-0.34668
-0.717937
-0.213143
0.0409799
36.7738
36.8474
36.3052
35.2161
33.8217
32.4623
31.265
30.3145
29.5373
28.9354
28.3942
27.936
27.4787
27.0551
26.6239
26.1943
25.7706
25.3213
24.9021
24.4316
24.0177
23.5335
23.1212
22.6331
22.2137
21.7265
21.2948
20.8008
20.3614
19.8479
19.4006
18.8708
18.3895
17.871
17.3157
16.8316
16.1931
15.7231
15.0455
14.5245
13.8404
13.2668
12.5444
11.9308
11.1848
10.4804
9.78592
8.93192
8.3078
7.37308
6.72867
5.77862
5.11498
4.25531
3.46152
2.83306
1.88225
1.44105
0.568496
0.175968
-0.344467
-0.927091
-1.01769
-1.6458
-1.61807
-1.68765
-2.01613
-1.65779
-1.93884
-1.94334
-1.51169
-1.68432
-1.32902
-0.834749
-0.893692
-0.589573
-0.281654
-0.468009
-0.352793
-0.0213546
36.0776
36.1505
35.7357
34.8892
33.6931
32.4393
31.2591
30.2733
29.4668
28.8274
28.2977
27.8244
27.4021
26.9599
26.5656
26.1091
25.7177
25.2423
24.8444
24.3612
23.9509
23.4736
23.0456
22.5812
22.1327
21.6768
21.2126
20.7516
20.277
19.8046
19.3083
18.836
18.2942
17.8345
17.239
16.7758
16.1511
15.6406
15.0241
14.4332
13.8264
13.1834
12.5447
11.8518
11.2114
10.4276
9.80299
8.94885
8.28472
7.47107
6.69891
5.9272
5.12486
4.43834
3.52615
2.96022
2.12582
1.4958
0.893127
0.268768
-0.0663983
-0.700368
-0.951273
-1.24376
-1.56292
-1.49208
-1.71486
-1.72149
-1.61643
-1.81887
-1.55543
-1.38011
-1.33661
-0.903354
-0.686498
-0.66341
-0.397415
-0.332519
-0.350039
-0.0736154
35.4775
35.5188
35.1899
34.5032
33.5084
32.3747
31.2632
30.2668
29.4496
28.7658
28.2313
27.7378
27.3305
26.8839
26.5047
26.0498
25.6602
25.1941
24.7818
24.3194
23.8821
23.4348
22.9752
22.5404
22.0656
21.6297
21.1486
20.7009
20.212
19.7549
19.242
18.7845
18.2375
17.7723
17.2043
16.7015
16.1343
15.5635
15.0049
14.3739
13.7977
13.1358
12.524
11.822
11.1957
10.4417
9.77568
9.01713
8.26717
7.54851
6.73156
6.02343
5.21046
4.53245
3.70891
3.03962
2.35743
1.64035
1.12043
0.493524
0.0843799
-0.395284
-0.788573
-0.979723
-1.30175
-1.3931
-1.45088
-1.58315
-1.4832
-1.54001
-1.48486
-1.24603
-1.14224
-0.914088
-0.627034
-0.549512
-0.453104
-0.303121
-0.258426
-0.0829013
34.9526
34.9568
34.6893
34.1103
33.2825
32.2688
31.2422
30.2622
29.4411
28.727
28.1714
27.6632
27.2491
26.8106
26.4262
25.9922
25.5872
25.1481
24.7102
24.2758
23.8119
23.3862
22.9103
22.4843
22.0074
21.5685
21.0929
20.6397
20.155
19.6943
19.1872
18.7186
18.1938
17.6976
17.1711
16.6269
16.099
15.5047
14.9602
14.3361
13.7504
13.1077
12.4886
11.8112
11.1595
10.4626
9.75065
9.05511
8.28509
7.58622
6.80167
6.08341
5.31771
4.60548
3.87538
3.15427
2.52753
1.83393
1.28754
0.724295
0.251581
-0.150209
-0.559269
-0.806117
-1.04766
-1.23693
-1.26041
-1.36767
-1.37437
-1.34097