/*--------------------------------*- C++ -*----------------------------------*\
| =========                 |                                                 |
| \\      /  F ield         | OpenFOAM: The Open Source CFD Toolbox           |
|  \\    /   O peration     | Version:  v2012                                 |
|   \\  /    A nd           | Website:  www.openfoam.com                      |
|    \\/     M anipulation  |                                                 |
\*---------------------------------------------------------------------------*/
FoamFile
{
    version     2.0;
    format      ascii;
    class       surfaceScalarField;
    location    "0.25";
    object      phi;
}
// * * * * * * * * * * * * * * * * * * * * * * * * * * * * * * * * * * * * * //

dimensions      [0 3 -1 0 0 0 0];
oriented        oriented;


internalField   nonuniform List<scalar> 
19000
(
0.000432982
1.74405e-08
0.000433057
-7.49803e-08
0.000433009
4.82898e-08
0.000433053
-4.41966e-08
0.000432974
7.88017e-08
0.000433023
-4.89831e-08
0.000432949
7.40117e-08
0.000433016
-6.74832e-08
0.000432943
7.3586e-08
0.000433018
-7.51097e-08
0.000432936
8.21573e-08
0.000433016
-7.97998e-08
0.000432924
9.14815e-08
0.000433007
-8.33096e-08
0.000432908
9.90394e-08
0.000432994
-8.61232e-08
0.00043289
1.04842e-07
0.000432977
-8.73955e-08
0.000432867
1.09647e-07
0.000432954
-8.64006e-08
0.00043284
1.13661e-07
0.000432923
-8.28306e-08
0.000432806
1.16579e-07
0.000432883
-7.6873e-08
0.000432765
1.18687e-07
0.000432833
-6.88074e-08
0.000432712
1.21527e-07
0.000432772
-5.99216e-08
0.000432645
1.27214e-07
0.000432696
-5.1285e-08
0.000432558
1.37887e-07
0.000432602
-4.45499e-08
0.000432448
1.54946e-07
0.000432487
-3.92417e-08
0.000432307
1.7975e-07
0.000432326
-1.90591e-08
0.00043206
2.66325e-07
0.000431874
1.85575e-07
0.000431006
8.68249e-07
1.4243e-06
0.000429582
0.000436782
5.06235e-08
0.000436811
-1.04253e-07
0.00043679
6.96026e-08
0.000436818
-7.20726e-08
0.00043679
1.06279e-07
0.000436809
-6.77453e-08
0.000436778
1.04843e-07
0.000436796
-8.55591e-08
0.000436769
1.01009e-07
0.000436789
-9.53525e-08
0.000436764
1.07451e-07
0.00043678
-9.55278e-08
0.000436757
1.14508e-07
0.000436765
-9.20097e-08
0.000436746
1.18474e-07
0.000436746
-8.65015e-08
0.000436732
1.19372e-07
0.000436723
-7.87477e-08
0.000436713
1.19157e-07
0.000436695
-6.83163e-08
0.00043669
1.19434e-07
0.000436662
-5.5143e-08
0.000436659
1.19947e-07
0.000436621
-3.90499e-08
0.000436619
1.20185e-07
0.000436569
-1.90501e-08
0.00043657
1.21044e-07
0.000436506
4.44747e-09
0.000436507
1.25584e-07
0.000436425
3.05464e-08
0.000436427
1.36427e-07
0.000436323
5.93955e-08
0.00043632
1.57993e-07
0.000436178
1.02723e-07
0.000436144
2.13694e-07
0.000435899
2.26205e-07
0.000435748
4.1737e-07
0.000435289
6.4432e-07
0.000435002
1.1552e-06
1.80877e-06
0.000434617
0.000440652
6.27383e-08
0.000440644
-9.61964e-08
0.000440645
6.86472e-08
0.000440646
-7.30842e-08
0.000440656
9.68415e-08
0.000440648
-5.95139e-08
0.000440652
9.9983e-08
0.000440634
-6.73144e-08
0.000440642
9.27436e-08
0.000440619
-7.22269e-08
0.000440635
9.14285e-08
0.000440605
-6.5463e-08
0.000440628
9.2078e-08
0.000440588
-5.26924e-08
0.000440617
8.98038e-08
0.000440567
-3.68773e-08
0.000440602
8.43525e-08
0.000440543
-1.93139e-08
0.000440583
7.91188e-08
0.000440515
-6.07615e-10
0.000440558
7.71509e-08
0.000440483
1.93391e-08
0.000440525
7.83609e-08
0.000440445
4.11811e-08
0.000440483
8.15196e-08
0.000440397
6.70612e-08
0.000440431
8.72891e-08
0.000440338
9.73671e-08
0.000440365
9.84778e-08
0.000440262
1.33586e-07
0.00044028
1.18548e-07
0.000440159
1.80316e-07
0.000440159
1.58144e-07
0.000439997
2.64057e-07
0.000439955
2.56393e-07
0.000439712
4.69448e-07
0.000439587
5.41817e-07
0.000439247
9.8464e-07
0.000439124
1.27763e-06
2.11484e-06
0.000438818
0.000444553
5.80623e-08
0.000444531
-7.43938e-08
0.000444541
5.89358e-08
0.000444528
-6.00954e-08
0.000444547
7.74879e-08
0.000444532
-4.43358e-08
0.000444548
8.38851e-08
0.000444523
-4.2705e-08
0.000444538
7.82446e-08
0.000444508
-4.28166e-08
0.000444526
7.35626e-08
0.000444494
-3.30217e-08
0.000444515
7.10119e-08
0.000444478
-1.54365e-08
0.000444501
6.61153e-08
0.000444458
6.73687e-09
0.000444484
5.80322e-08
0.000444434
3.10056e-08
0.000444462
5.05618e-08
0.000444405
5.62027e-08
0.000444435
4.744e-08
0.000444372
8.23255e-08
0.000444401
4.90338e-08
0.000444333
1.10064e-07
0.000444359
5.51533e-08
0.000444285
1.41016e-07
0.000444305
6.72069e-08
0.000444227
1.75904e-07
0.000444236
8.92319e-08
0.000444152
2.17827e-07
0.000444143
1.26881e-07
0.000444047
2.76564e-07
0.000444009
1.96503e-07
0.000443883
3.8927e-07
0.000443793
3.47162e-07
0.000443626
6.36083e-07
0.000443461
7.06526e-07
0.000443271
1.17476e-06
0.00044308
1.46905e-06
2.23726e-06
0.000442957
0.000448477
4.7035e-08
0.000448453
-5.10335e-08
0.000448467
4.5158e-08
0.000448447
-4.01396e-08
0.000448468
5.66078e-08
0.000448449
-2.52884e-08
0.000448469
6.36724e-08
0.000448444
-1.7992e-08
0.000448462
6.10962e-08
0.000448431
-1.22312e-08
0.000448449
5.57172e-08
0.000448416
-1.90575e-10
0.000448436
5.14445e-08
0.0004484
2.03304e-08
0.000448421
4.53825e-08
0.000448381
4.65495e-08
0.000448402
3.67234e-08
0.000448358
7.53821e-08
0.000448379
2.96622e-08
0.00044833
1.04881e-07
0.00044835
2.76571e-08
0.000448297
1.35003e-07
0.000448314
3.19719e-08
0.000448258
1.66103e-07
0.000448269
4.38602e-08
0.000448211
1.98999e-07
0.000448213
6.58035e-08
0.000448153
2.35371e-07
0.00044814
1.02573e-07
0.000448078
2.80077e-07
0.000448042
1.63058e-07
0.000447971
3.4707e-07
0.000447899
2.68133e-07
0.000447812
4.77071e-07
0.000447687
4.71762e-07
0.000447577
7.46063e-07
0.000447396
8.87367e-07
0.000447282
1.28878e-06
0.000447088
1.66312e-06
2.26888e-06
0.000447056
0.00045243
3.45951e-08
0.000452414
-3.45998e-08
0.000452423
3.59861e-08
0.000452404
-2.16245e-08
0.00045242
4.12834e-08
0.000452402
-7.02306e-09
0.00045242
4.5195e-08
0.000452397
5.19762e-09
0.000452415
4.25109e-08
0.000452385
1.83362e-08
0.000452405
3.59704e-08
0.000452369
3.55694e-08
0.000452391
2.88366e-08
0.000452352
6.0144e-08
0.000452376
2.12048e-08
0.000452333
8.92699e-08
0.000452356
1.37527e-08
0.000452312
1.19561e-07
0.000452331
1.09451e-08
0.000452287
1.48934e-07
0.000452298
1.57136e-08
0.000452257
1.76763e-07
0.000452259
2.99488e-08
0.000452221
2.03569e-07
0.000452209
5.57039e-08
0.000452178
2.30457e-07
0.000452148
9.56127e-08
0.000452122
2.61097e-07
0.000452071
1.54248e-07
0.000452047
3.03559e-07
0.000451968
2.419e-07
0.00045194
3.75712e-07
0.000451826
3.82122e-07
0.000451784
5.19076e-07
0.000451626
6.29239e-07
0.000451566
8.06727e-07
0.000451378
1.07526e-06
0.00045131
1.35649e-06
0.000451139
1.83411e-06
2.26807e-06
0.00045114
0.000456419
2.0524e-08
0.000456401
-1.68358e-08
0.000456415
2.1835e-08
0.000456393
4.5475e-10
0.00045641
2.4144e-08
0.000456387
1.64788e-08
0.000456408
2.36547e-08
0.000456381
3.23069e-08
0.000456404
1.95653e-08
0.000456372
5.08543e-08
0.000456394
1.38288e-08
0.000456357
7.21115e-08
0.000456379
6.8353e-09
0.000456341
9.81473e-08
0.000456361
1.21876e-09
0.000456325
1.25931e-07
0.000456339
-5.6983e-10
0.000456306
1.52314e-07
0.000456311
6.48072e-09
0.000456284
1.75766e-07
0.000456276
2.39539e-08
0.000456257
1.95734e-07
0.000456233
5.35255e-08
0.000456223
2.13666e-07
0.000456182
9.68242e-08
0.00045618
2.32196e-07
0.00045612
1.56034e-07
0.000456123
2.57419e-07
0.000456042
2.35386e-07
0.000456045
3.00452e-07
0.000455941
3.45768e-07
0.000455935
3.82366e-07
0.000455805
5.11531e-07
0.00045578
5.4473e-07
0.000455625
7.83537e-07
0.000455574
8.57637e-07
0.000455415
1.23522e-06
0.000455353
1.4179e-06
0.000455231
1.95616e-06
2.28358e-06
0.000455216
0.000460444
3.7324e-09
0.000460418
8.36308e-09
0.000460442
-1.60774e-09
0.000460415
2.75174e-08
0.000460438
9.84832e-10
0.000460408
4.62076e-08
0.000460433
-5.72e-10
0.000460402
6.24109e-08
0.000460426
-4.19958e-09
0.000460396
8.10131e-08
0.000460415
-4.70409e-09
0.000460385
1.01247e-07
0.000460397
-4.88178e-09
0.000460373
1.22644e-07
0.000460376
-1.71864e-09
0.000460359
1.42801e-07
0.00046035
7.98178e-09
0.000460342
1.60352e-07
0.00046032
2.83328e-08
0.000460321
1.7513e-07
0.000460285
6.02321e-08
0.000460294
1.86868e-07
0.000460243
1.04453e-07
0.000460258
1.98104e-07
0.000460193
1.61814e-07
0.000460212
2.13407e-07
0.000460134
2.33891e-07
0.00046015
2.41126e-07
0.000460061
3.24978e-07
0.000460067
2.94449e-07
0.000459966
4.46695e-07
0.000459952
3.96185e-07
0.00045984
6.23565e-07
0.000459798
5.86703e-07
0.000459679
9.02212e-07
0.000459607
9.29616e-07
0.000459499
1.344e-06
0.000459418
1.49888e-06
0.000459354
2.02004e-06
2.33201e-06
0.000459305
0.000464502
-1.34467e-08
0.000464471
3.85395e-08
0.000464498
-2.81198e-08
0.000464474
5.1297e-08
0.000464496
-2.11074e-08
0.000464471
7.13807e-08
0.000464487
-1.64074e-08
0.000464466
8.32659e-08
0.000464477
-1.50741e-08
0.000464462
9.56084e-08
0.000464464
-6.55734e-09
0.000464455
1.10177e-07
0.000464445
5.11872e-09
0.000464444
1.238e-07
0.000464423
1.96983e-08
0.00046443
1.3507e-07
0.000464397
4.11065e-08
0.000464413
1.44769e-07
0.000464369
7.24894e-08
0.00046439
1.53977e-07
0.000464336
1.14498e-07
0.000464359
1.63033e-07
0.000464297
1.6689e-07
0.00046432
1.75236e-07
0.000464252
2.29873e-07
0.000464269
1.96555e-07
0.000464197
3.05143e-07
0.000464202
2.36611e-07
0.000464129
3.98011e-07
0.000464114
3.0926e-07
0.00046404
5.21293e-07
0.000463998
4.37572e-07
0.000463922
6.99598e-07
0.000463849
6.59449e-07
0.000463776
9.75298e-07
0.000463677
1.02887e-06
0.000463617
1.40375e-06
0.000463517
1.59937e-06
0.000463497
2.03964e-06
2.39964e-06
0.00046343
0.00046859
-2.60789e-08
0.000468565
6.36139e-08
0.000468582
-4.45716e-08
0.000468573
6.05884e-08
0.000468583
-3.2039e-08
0.000468575
7.96844e-08
0.000468572
-1.34746e-08
0.00046857
8.52608e-08
0.000468559
-4.18891e-09
0.000468567
8.80715e-08
0.000468547
1.30282e-08
0.000468561
9.65765e-08
0.00046853
3.5877e-08
0.000468549
1.05108e-07
0.00046851
5.89176e-08
0.000468533
1.11716e-07
0.000468487
8.7036e-08
0.000468512
1.19425e-07
0.000468462
1.22909e-07
0.000468486
1.30073e-07
0.000468433
1.67316e-07
0.000468452
1.44537e-07
0.000468399
2.19678e-07
0.000468408
1.65934e-07
0.000468357
2.80578e-07
0.000468353
2.00428e-07
0.000468306
3.52779e-07
0.000468285
2.57864e-07
0.00046824
4.43081e-07
0.000468197
3.52264e-07
0.000468153
5.65057e-07
0.000468084
5.06538e-07
0.000468041
7.4278e-07
0.000467945
7.54719e-07
0.000467905
1.0157e-06
0.000467793
1.1404e-06
0.000467762
1.43496e-06
0.00046766
1.70144e-06
0.000467658
2.04198e-06
2.46055e-06
0.000467597
0.000472711
-2.95838e-08
0.000472703
7.15172e-08
0.000472698
-3.99401e-08
0.000472708
5.11161e-08
0.000472701
-2.55031e-08
0.000472715
6.58279e-08
0.000472692
9.08733e-09
0.000472709
6.8977e-08
0.000472679
2.53929e-08
0.000472703
6.44075e-08
0.00047267
4.60973e-08
0.000472695
7.09088e-08
0.000472657
7.43458e-08
0.000472681
8.09593e-08
0.00047264
9.99381e-08
0.000472662
8.97532e-08
0.000472621
1.27751e-07
0.000472638
1.02427e-07
0.0004726
1.61322e-07
0.000472609
1.2082e-07
0.000472574
2.02354e-07
0.000472573
1.45694e-07
0.000472542
2.50599e-07
0.000472528
1.79429e-07
0.000472502
3.07362e-07
0.000472474
2.28061e-07
0.00047245
3.76467e-07
0.000472407
3.01688e-07
0.000472384
4.65622e-07
0.000472322
4.14675e-07
0.000472298
5.88615e-07
0.000472216
5.88981e-07
0.000472189
7.69062e-07
0.00047209
8.53816e-07
0.000472061
1.04452e-06
0.000471958
1.2437e-06
0.000471932
1.46086e-06
0.000471848
1.78572e-06
0.00047184
2.04984e-06
2.49665e-06
0.000471804
0.000476866
-2.28926e-08
0.00047688
5.74745e-08
0.000476854
-1.40954e-08
0.000476877
2.89176e-08
0.000476855
-4.01788e-09
0.000476884
3.67041e-08
0.000476853
3.99971e-08
0.000476877
4.55732e-08
0.000476842
6.05037e-08
0.000476866
3.97821e-08
0.000476834
7.79654e-08
0.000476857
4.8593e-08
0.000476826
1.04807e-07
0.000476841
6.64733e-08
0.000476813
1.28049e-07
0.00047682
8.28855e-08
0.000476796
1.51033e-07
0.000476795
1.03998e-07
0.000476777
1.79454e-07
0.000476765
1.31903e-07
0.000476751
2.16418e-07
0.00047673
1.66818e-07
0.000476719
2.61878e-07
0.000476688
2.10629e-07
0.000476678
3.17352e-07
0.000476636
2.69914e-07
0.000476625
3.87041e-07
0.000476572
3.55353e-07
0.000476559
4.78869e-07
0.000476491
4.81782e-07
0.000476473
6.0664e-07
0.000476393
6.69019e-07
0.000476368
7.94092e-07
0.000476281
9.41244e-07
0.000476248
1.07708e-06
0.000476166
1.32586e-06
0.000476132
1.49494e-06
0.000476075
1.84314e-06
0.000476053
2.07187e-06
2.50568e-06
0.000476044
0.000481062
-9.53514e-09
0.000481091
2.90209e-08
0.000481057
1.93787e-08
0.000481078
7.53777e-09
0.000481052
2.27336e-08
0.000481082
6.84647e-09
0.000481057
6.49604e-08
0.000481075
2.73771e-08
0.000481048
8.72965e-08
0.00048106
2.79545e-08
0.000481041
9.69731e-08
0.000481049
4.07443e-08
0.000481035
1.18173e-07
0.000481033
6.8588e-08
0.000481023
1.38107e-07
0.000481012
9.42548e-08
0.000481006
1.56393e-07
0.000480988
1.22459e-07
0.000480986
1.81254e-07
0.000480961
1.57163e-07
0.00048096
2.17458e-07
0.000480928
1.9831e-07
0.000480926
2.64332e-07
0.000480889
2.47716e-07
0.000480883
3.22837e-07
0.00048084
3.13281e-07
0.00048083
3.96736e-07
0.000480779
4.0661e-07
0.000480764
4.94004e-07
0.000480703
5.42434e-07
0.000480681
6.2908e-07
0.000480613
7.37054e-07
0.000480581
8.26228e-07
0.000480512
1.01026e-06
0.00048047
1.11888e-06
0.000480411
1.38459e-06
0.000480367
1.5388e-06
0.000480334
1.87658e-06
0.000480302
2.10381e-06
2.497e-06
0.000480311
0.000485301
4.97595e-09
0.00048533
-8.84675e-10
0.000485305
4.51765e-08
0.000485315
-2.81545e-09
0.000485293
4.43642e-08
0.00048531
-9.74648e-09
0.0004853
7.47122e-08
0.000485307
2.09548e-08
0.000485295
9.87178e-08
0.00048529
3.3404e-08
0.000485286
1.00977e-07
0.000485277
4.92067e-08
0.00048528
1.15363e-07
0.000485264
8.45505e-08
0.000485268
1.34502e-07
0.000485244
1.17586e-07
0.000485249
1.5175e-07
0.000485223
1.48868e-07
0.000485227
1.77143e-07
0.000485198
1.85579e-07
0.000485199
2.1701e-07
0.000485168
2.28651e-07
0.000485164
2.69013e-07
0.000485131
2.80574e-07
0.000485121
3.32853e-07
0.000485084
3.50354e-07
0.000485069
4.11981e-07
0.000485025
4.49983e-07
0.000485004
5.15352e-07
0.000484954
5.92717e-07
0.000484924
6.58819e-07
0.00048487
7.90997e-07
0.00048483
8.66449e-07
0.000484778
1.06161e-06
0.000484729
1.16808e-06
0.000484689
1.42449e-06
0.000484641
1.58738e-06
0.000484622
1.89479e-06
0.00048459
2.13658e-06
2.48213e-06
0.000484605
0.000489582
1.50699e-08
0.000489601
-2.00371e-08
0.000489591
5.55803e-08
0.00048959
-2.02473e-09
0.000489577
5.67128e-08
0.000489576
-8.35582e-09
0.000489581
6.98688e-08
0.000489576
2.53756e-08
0.000489579
9.61735e-08
0.000489561
5.10942e-08
0.000489567
9.56912e-08
0.000489548
6.8187e-08
0.000489559
1.04373e-07
0.000489537
1.06032e-07
0.000489545
1.26152e-07
0.00048952
1.42986e-07
0.000489525
1.47132e-07
0.0004895
1.73655e-07
0.0004895
1.76729e-07
0.000489477
2.08599e-07
0.000489472
2.22707e-07
0.000489449
2.51465e-07
0.000489437
2.80905e-07
0.000489412
3.05806e-07
0.000489395
3.49545e-07
0.000489365
3.80205e-07
0.000489344
4.32907e-07
0.000489308
4.85806e-07
0.000489282
5.42083e-07
0.000489241
6.33683e-07
0.000489205
6.94236e-07
0.000489163
8.33318e-07
0.000489118
9.11683e-07
0.000489079
1.10002e-06
0.000489028
1.21948e-06
0.000488999
1.45291e-06
0.000488953
1.63382e-06
0.000488941
1.90671e-06
0.000488915
2.16261e-06
2.46871e-06
0.000488929
0.000493902
1.91657e-08
0.000493907
-2.4419e-08
0.000493911
5.10011e-08
0.000493903
6.09623e-09
0.000493901
5.92602e-08
0.000493886
6.80921e-09
0.000493897
5.85942e-08
0.000493887
3.55823e-08
0.000493897
8.54939e-08
0.000493876
7.21399e-08
0.000493883
8.87916e-08
0.000493861
8.99793e-08
0.000493871
9.43004e-08
0.000493852
1.25066e-07
0.000493858
1.20617e-07
0.000493838
1.62821e-07
0.000493836
1.49026e-07
0.000493819
1.91252e-07
0.000493811
1.84629e-07
0.000493796
2.23371e-07
0.000493783
2.35986e-07
0.000493767
2.66807e-07
0.000493749
2.98729e-07
0.00049373
3.25554e-07
0.000493709
3.70296e-07
0.000493683
4.05702e-07
0.00049366
4.56767e-07
0.000493629
5.16655e-07
0.000493599
5.71687e-07
0.000493565
6.67895e-07
0.000493527
7.32511e-07
0.000493492
8.6755e-07
0.000493446
9.58053e-07
0.000493415
1.13075e-06
0.000493367
1.26795e-06
0.000493343
1.47643e-06
0.000493304
1.6729e-06
0.000493293
1.91823e-06
0.000493277
2.17857e-06
2.45923e-06
0.000493286
0.00049826
1.835e-08
0.000498253
-1.76161e-08
0.000498265
3.90293e-08
0.000498255
1.58511e-08
0.000498259
5.53625e-08
0.00049824
2.61504e-08
0.000498249
4.94432e-08
0.000498237
4.74462e-08
0.00049825
7.26459e-08
0.000498233
8.96395e-08
0.000498236
8.48511e-08
0.000498217
1.0902e-07
0.000498221
9.08003e-08
0.000498208
1.37673e-07
0.000498207
1.21485e-07
0.000498196
1.7416e-07
0.000498186
1.58793e-07
0.000498176
2.01247e-07
0.000498161
1.99947e-07
0.000498152
2.32111e-07
0.000498134
2.53844e-07
0.000498123
2.78346e-07
0.000498103
3.18444e-07
0.000498085
3.43473e-07
0.000498064
3.91759e-07
0.00049804
4.29624e-07
0.000498015
4.8126e-07
0.000497988
5.44522e-07
0.000497957
6.02218e-07
0.000497927
6.97543e-07
0.000497889
7.71041e-07
0.000497859
8.97039e-07
0.000497815
1.00199e-06
0.000497788
1.15828e-06
0.000497746
1.30985e-06
0.000497723
1.49914e-06
0.000497694
1.70264e-06
0.000497681
1.93103e-06
0.000497674
2.18555e-06
2.45198e-06
0.000497681
0.000502653
1.5057e-08
0.000502642
-6.29746e-09
0.000502654
2.75663e-08
0.000502646
2.31221e-08
0.000502653
4.89678e-08
0.000502636
4.27368e-08
0.00050264
4.59891e-08
0.000502629
5.84556e-08
0.000502638
6.29913e-08
0.000502628
1.0017e-07
0.000502627
8.50698e-08
0.000502614
1.22577e-07
0.000502609
9.53792e-08
0.000502603
1.43911e-07
0.000502596
1.2876e-07
0.000502592
1.78127e-07
0.000502577
1.73741e-07
0.000502571
2.06626e-07
0.000502553
2.18599e-07
0.000502546
2.39268e-07
0.000502527
2.72017e-07
0.000502516
2.90036e-07
0.000502498
3.36636e-07
0.000502479
3.61846e-07
0.000502459
4.1214e-07
0.000502436
4.52901e-07
0.000502411
5.05737e-07
0.000502386
5.69956e-07
0.000502355
6.3284e-07
0.000502329
7.23943e-07
0.000502292
8.07886e-07
0.000502264
9.24335e-07
0.000502226
1.04091e-06
0.000502198
1.18549e-06
0.000502165
1.34357e-06
0.000502141
1.52253e-06
0.00050212
1.72369e-06
0.000502107
1.94407e-06
0.000502106
2.18659e-06
2.44399e-06
0.000502114
0.000507083
1.15738e-08
0.000507073
3.72346e-09
0.00050708
2.09019e-08
0.000507075
2.75679e-08
0.000507082
4.26372e-08
0.000507071
5.38761e-08
0.00050707
4.7049e-08
0.00050706
6.78951e-08
0.000507064
5.92161e-08
0.00050706
1.03952e-07
0.000507056
8.87767e-08
0.000507049
1.2997e-07
0.000507038
1.0655e-07
0.000507036
1.46062e-07
0.000507024
1.40434e-07
0.000507024
1.78039e-07
0.000507008
1.89787e-07
0.000507004
2.11104e-07
0.000506986
2.36391e-07
0.000506977
2.48324e-07
0.000506961
2.87802e-07
0.000506947
3.03786e-07
0.000506932
3.52261e-07
0.000506913
3.80788e-07
0.000506893
4.31389e-07
0.000506871
4.7516e-07
0.000506847
5.30206e-07
0.000506823
5.9329e-07
0.000506794
6.62643e-07
0.000506769
7.48452e-07
0.000506735
8.41398e-07
0.000506709
9.51104e-07
0.000506676
1.07374e-06
0.000506648
1.21309e-06
0.000506622
1.3699e-06
0.000506599
1.54562e-06
0.000506584
1.73856e-06
0.000506573
1.95507e-06
0.000506575
2.18463e-06
2.43328e-06
0.000506586
0.000511551
9.04894e-09
0.000511545
9.98575e-09
0.000511546
1.91748e-08
0.000511543
3.05046e-08
0.000511548
3.78994e-08
0.000511542
5.98317e-08
0.000511539
5.01578e-08
0.000511531
7.55803e-08
0.000511529
6.12709e-08
0.00051153
1.03706e-07
0.000511524
9.45069e-08
0.000511522
1.3232e-07
0.000511507
1.20884e-07
0.000511506
1.47237e-07
0.000511493
1.53603e-07
0.000511493
1.77835e-07
0.00051148
2.03403e-07
0.000511473
2.17319e-07
0.000511459
2.50807e-07
0.000511447
2.60406e-07
0.000511434
3.00917e-07
0.000511418
3.19184e-07
0.000511404
3.66264e-07
0.000511386
3.99024e-07
0.000511367
4.50287e-07
0.000511347
4.95735e-07
0.000511322
5.54463e-07
0.0005113
6.15279e-07
0.000511273
6.9035e-07
0.000511248
7.72594e-07
0.00051122
8.7023e-07
0.000511193
9.78185e-07
0.000511166
1.1006e-06
0.000511139
1.24026e-06
0.000511117
1.39096e-06
0.000511097
1.56634e-06
0.000511085
1.75019e-06
0.000511078
1.96195e-06
0.000511081
2.18169e-06
2.41912e-06
0.000511095
0.000516058
7.42068e-09
0.000516055
1.33803e-08
0.000516054
1.97006e-08
0.000516051
3.34472e-08
0.000516054
3.55582e-08
0.000516051
6.19885e-08
0.000516048
5.39341e-08
0.000516042
8.083e-08
0.000516036
6.78697e-08
0.000516037
1.02066e-07
0.000516031
1.01332e-07
0.000516031
1.31705e-07
0.000516017
1.34712e-07
0.000516015
1.49898e-07
0.000516003
1.6577e-07
0.000516
1.80429e-07
0.00051599
2.13027e-07
0.000515982
2.2596e-07
0.000515971
2.61612e-07
0.000515957
2.74493e-07
0.000515945
3.12597e-07
0.00051593
3.34796e-07
0.000515916
3.80049e-07
0.000515899
4.15529e-07
0.000515881
4.69076e-07
0.000515862
5.14645e-07
0.000515838
5.77691e-07
0.000515817
6.36835e-07
0.000515792
7.15011e-07
0.000515768
7.97036e-07
0.000515744
8.9434e-07
0.000515717
1.00502e-06
0.000515695
1.12283e-06
0.000515669
1.2654e-06
0.000515651
1.4089e-06
0.000515635
1.58317e-06
0.000515625
1.76022e-06
0.000515622
1.96424e-06
0.000515626
2.17803e-06
2.40214e-06
0.000515643
0.000520605
6.26037e-09
0.000520603
1.54541e-08
0.000520603
2.03164e-08
0.0005206
3.67504e-08
0.000520599
3.56602e-08
0.000520599
6.21455e-08
0.000520595
5.79019e-08
0.000520593
8.33489e-08
0.000520584
7.70401e-08
0.000520585
1.00895e-07
0.000520578
1.08557e-07
0.000520579
1.30539e-07
0.000520568
1.45512e-07
0.000520563
1.55048e-07
0.000520553
1.75695e-07
0.000520547
1.86696e-07
0.00052054
2.1939e-07
0.00052053
2.35899e-07
0.000520522
2.70304e-07
0.000520508
2.88483e-07
0.000520496
3.24391e-07
0.000520481
3.49358e-07
0.000520467
3.9437e-07
0.000520452
4.30378e-07
0.000520434
4.87025e-07
0.000520416
5.32752e-07
0.000520395
5.98625e-07
0.000520373
6.58737e-07
0.000520352
7.36301e-07
0.000520327
8.21448e-07
0.000520307
9.14913e-07
0.000520282
1.03e-06
0.000520262
1.14252e-06
0.000520241
1.28675e-06
0.000520224
1.42537e-06
0.000520212
1.59553e-06
0.000520203
1.769e-06
0.000520205
1.96284e-06
0.00052021
2.1727e-06
2.38376e-06
0.000520228
0.000525193
5.21647e-09
0.000525192
1.72172e-08
0.000525191
2.05884e-08
0.000525189
3.94686e-08
0.000525186
3.79472e-08
0.000525187
6.1554e-08
0.000525183
6.21125e-08
0.000525182
8.37839e-08
0.000525173
8.63986e-08
0.000525172
1.01529e-07
0.000525166
1.15214e-07
0.000525165
1.30983e-07
0.000525158
1.52414e-07
0.000525151
1.62347e-07
0.000525143
1.83352e-07
0.000525134
1.95706e-07
0.000525129
2.24526e-07
0.000525119
2.45553e-07
0.000525111
2.7857e-07
0.000525099
3.0077e-07
0.000525086
3.37022e-07
0.000525073
3.6247e-07
0.000525058
4.09059e-07
0.000525044
4.44352e-07
0.000525028
5.03241e-07
0.00052501
5.50764e-07
0.000524992
6.16614e-07
0.00052497
6.80908e-07
0.000524952
7.54737e-07
0.000524928
8.44848e-07
0.00052491
9.33392e-07
0.000524888
1.05174e-06
0.00052487
1.16104e-06
0.000524853
1.3035e-06
0.000524837
1.44096e-06
0.000524829
1.60373e-06
0.000524822
1.77619e-06
0.000524826
1.95887e-06
0.000524834
2.16489e-06
2.36495e-06
0.000524852
0.000529821
4.30728e-09
0.00052982
1.87747e-08
0.000529819
2.1034e-08
0.000529818
4.07011e-08
0.000529814
4.18424e-08
0.000529815
6.08752e-08
0.000529811
6.65716e-08
0.000529811
8.34628e-08
0.000529803
9.39084e-08
0.0005298
1.04561e-07
0.000529795
1.20573e-07
0.000529792
1.34064e-07
0.000529788
1.56138e-07
0.00052978
1.705e-07
0.000529774
1.89719e-07
0.000529764
2.05559e-07
0.000529758
2.30457e-07
0.00052975
2.53901e-07
0.000529741
2.87281e-07
0.00052973
3.11073e-07
0.000529718
3.49952e-07
0.000529705
3.74796e-07
0.000529691
4.23113e-07
0.000529677
4.58491e-07
0.000529663
5.1723e-07
0.000529645
5.68709e-07
0.00052963
6.32046e-07
0.000529608
7.0224e-07
0.000529591
7.71587e-07
0.00052957
8.65905e-07
0.000529553
9.51028e-07
0.000529535
1.0696e-06
0.000529517
1.17868e-06
0.000529505
1.31612e-06
0.000529491
1.45499e-06
0.000529485
1.60891e-06
0.000529481
1.78098e-06
0.000529486
1.95336e-06
0.000529497
2.15435e-06
2.34584e-06
0.000529516
0.00053449
3.80124e-09
0.000534489
1.96301e-08
0.000534488
2.2401e-08
0.000534488
4.03418e-08
0.000534484
4.62603e-08
0.000534484
6.06896e-08
0.00053448
7.07928e-08
0.000534479
8.3845e-08
0.000534475
9.86533e-08
0.00053447
1.09519e-07
0.000534466
1.24649e-07
0.00053446
1.39393e-07
0.000534458
1.58409e-07
0.000534451
1.77995e-07
0.000534444
1.96001e-07
0.000534435
2.14523e-07
0.000534428
2.3818e-07
0.000534421
2.60865e-07
0.000534411
2.96462e-07
0.000534403
3.20034e-07
0.00053439
3.62107e-07
0.000534378
3.87228e-07
0.000534365
4.35604e-07
0.000534351
4.73369e-07
0.000534339
5.29123e-07
0.000534321
5.86126e-07
0.000534308
6.45775e-07
0.000534288
7.21506e-07
0.000534272
7.8793e-07
0.000534254
8.83737e-07
0.000534237
9.68424e-07
0.000534223
1.08368e-06
0.000534206
1.19507e-06
0.000534197
1.32555e-06
0.000534185
1.46656e-06
0.000534182
1.61221e-06
0.00053418
1.78264e-06
0.000534187
1.94707e-06
0.0005342
2.14104e-06
2.32636e-06
0.000534219
0.0005392
3.87536e-09
0.0005392
1.94864e-08
0.000539198
2.47705e-08
0.000539199
3.92565e-08
0.000539195
4.99276e-08
0.000539194
6.16024e-08
0.000539191
7.40388e-08
0.000539189
8.58214e-08
0.000539187
1.00973e-07
0.000539181
1.15219e-07
0.000539177
1.28118e-07
0.000539171
1.45543e-07
0.000539168
1.6116e-07
0.000539163
1.83748e-07
0.000539156
2.02837e-07
0.000539149
2.21928e-07
0.000539139
2.47292e-07
0.000539133
2.67268e-07
0.000539124
3.05448e-07
0.000539115
3.28662e-07
0.000539105
3.72659e-07
0.000539092
4.00101e-07
0.000539081
4.46409e-07
0.000539066
4.88567e-07
0.000539055
5.39809e-07
0.000539039
6.02219e-07
0.000539026
6.58713e-07
0.00053901
7.37979e-07
0.000538994
8.04033e-07
0.000538979
8.98419e-07
0.000538962
9.85218e-07
0.000538951
1.09479e-06
0.000538937
1.2095e-06
0.000538929
1.3327e-06
0.000538921
1.4751e-06
0.000538919
1.61413e-06
0.000538921
1.78108e-06
0.000538928
1.94008e-06
0.000538943
2.12532e-06
2.30627e-06
0.000538963
0.000543951
4.45921e-09
0.000543952
1.85927e-08
0.000543949
2.74697e-08
0.00054395
3.87323e-08
0.000543948
5.20065e-08
0.000543946
6.37339e-08
0.000543944
7.60465e-08
0.00054394
8.93315e-08
0.000543939
1.0203e-07
0.000543934
1.20374e-07
0.00054393
1.31779e-07
0.000543925
1.51079e-07
0.00054392
1.65564e-07
0.000543916
1.87617e-07
0.000543909
2.10091e-07
0.000543903
2.28039e-07
0.000543894
2.56644e-07
0.000543887
2.74137e-07
0.000543879
3.13441e-07
0.00054387
3.37765e-07
0.000543861
3.81277e-07
0.000543848
4.13199e-07
0.000543838
4.55993e-07
0.000543824
5.03161e-07
0.000543813
5.50318e-07
0.000543799
6.16251e-07
0.000543786
6.71567e-07
0.000543773
7.51427e-07
0.000543757
8.19672e-07
0.000543745
9.10507e-07
0.00054373
1.00065e-06
0.000543721
1.104e-06
0.000543709
1.22123e-06
0.000543703
1.33839e-06
0.000543698
1.48031e-06
0.000543697
1.61485e-06
0.000543702
1.77658e-06
0.00054371
1.93203e-06
0.000543727
2.10782e-06
2.28515e-06
0.000543748
0.000548745
5.20591e-09
0.000548745
1.76778e-08
0.000548743
2.95269e-08
0.000548743
3.96007e-08
0.000548742
5.25972e-08
0.000548739
6.65939e-08
0.000548738
7.72546e-08
0.000548734
9.34087e-08
0.000548733
1.03268e-07
0.000548729
1.24153e-07
0.000548725
1.3604e-07
0.00054872
1.55344e-07
0.000548714
1.71506e-07
0.000548712
1.90428e-07
0.000548705
2.17063e-07
0.000548699
2.33583e-07
0.000548691
2.65128e-07
0.000548683
2.81969e-07
0.000548676
3.20181e-07
0.000548666
3.47424e-07
0.000548659
3.88321e-07
0.000548647
4.25879e-07
0.000548638
4.64967e-07
0.000548624
5.1639e-07
0.000548614
5.61114e-07
0.000548602
6.28094e-07
0.000548589
6.84433e-07
0.000548578
7.62197e-07
0.000548563
8.34369e-07
0.000548553
9.20546e-07
0.00054854
1.0142e-06
0.000548532
1.11196e-06
0.000548523
1.22998e-06
0.000548518
1.34304e-06
0.000548517
1.48219e-06
0.000548517
1.61441e-06
0.000548524
1.7694e-06
0.000548534
1.92266e-06
0.000548552
2.08902e-06
2.26266e-06
0.000548575
0.000553581
5.7123e-09
0.000553581
1.74822e-08
0.00055358
3.03328e-08
0.000553578
4.17961e-08
0.000553578
5.25026e-08
0.000553575
6.93788e-08
0.000553574
7.8471e-08
0.00055357
9.69019e-08
0.000553568
1.05732e-07
0.000553566
1.26368e-07
0.000553561
1.40824e-07
0.000553558
1.58493e-07
0.000553551
1.78017e-07
0.000553548
1.93404e-07
0.000553542
2.22951e-07
0.000553537
2.3929e-07
0.00055353
2.72056e-07
0.000553521
2.90676e-07
0.000553515
3.25962e-07
0.000553506
3.57091e-07
0.000553499
3.94613e-07
0.000553488
4.37299e-07
0.000553479
4.73924e-07
0.000553468
5.27783e-07
0.000553457
5.72152e-07
0.000553447
6.38063e-07
0.000553434
6.96879e-07
0.000553425
7.71076e-07
0.000553412
8.4745e-07
0.000553404
9.29105e-07
0.000553392
1.02549e-06
0.000553385
1.11893e-06
0.000553379
1.23595e-06
0.000553376
1.34658e-06
0.000553377
1.48118e-06
0.000553379
1.61256e-06
0.000553388
1.75998e-06
0.000553399
1.91172e-06
0.000553419
2.06919e-06
2.23868e-06
0.000553443
0.00055846
5.779e-09
0.000558459
1.82339e-08
0.000558459
3.00686e-08
0.000558456
4.44686e-08
0.000558456
5.26991e-08
0.000558454
7.14764e-08
0.000558452
8.02628e-08
0.00055845
9.91886e-08
0.000558446
1.09531e-07
0.000558445
1.27565e-07
0.00055844
1.45682e-07
0.000558438
1.61089e-07
0.000558432
1.84057e-07
0.000558428
1.97327e-07
0.000558423
2.27484e-07
0.000558417
2.45438e-07
0.000558412
2.77343e-07
0.000558403
2.99756e-07
0.000558397
3.31249e-07
0.000558388
3.66188e-07
0.000558382
4.00803e-07
0.000558372
4.46942e-07
0.000558363
4.83119e-07
0.000558354
5.37198e-07
0.000558343
5.83177e-07
0.000558334
6.46459e-07
0.000558323
7.08462e-07
0.000558315
7.78755e-07
0.000558304
8.58396e-07
0.000558297
9.36677e-07
0.000558288
1.03416e-06
0.000558282
1.1251e-06
0.000558278
1.23938e-06
0.000558276
1.34886e-06
0.000558279
1.47789e-06
0.000558283
1.60889e-06
0.000558294
1.74896e-06
0.000558307
1.89884e-06
0.000558327
2.04865e-06
2.21319e-06
0.000558353
0.000563381
5.50805e-09
0.00056338
1.95621e-08
0.000563381
2.95059e-08
0.000563379
4.65622e-08
0.000563377
5.38299e-08
0.000563376
7.26472e-08
0.000563374
8.27674e-08
0.000563373
1.00387e-07
0.000563368
1.13946e-07
0.000563367
1.28677e-07
0.000563363
1.49989e-07
0.00056336
1.63813e-07
0.000563355
1.88945e-07
0.00056335
2.02303e-07
0.000563347
2.30977e-07
0.00056334
2.51767e-07
0.000563336
2.81497e-07
0.000563328
3.08436e-07
0.000563322
3.36529e-07
0.000563314
3.7432e-07
0.000563308