/*--------------------------------*- C++ -*----------------------------------*\
| =========                 |                                                 |
| \\      /  F ield         | OpenFOAM: The Open Source CFD Toolbox           |
|  \\    /   O peration     | Version:  v2012                                 |
|   \\  /    A nd           | Website:  www.openfoam.com                      |
|    \\/     M anipulation  |                                                 |
\*---------------------------------------------------------------------------*/
FoamFile
{
    version     2.0;
    format      ascii;
    class       volVectorField;
    location    "0.25";
    object      U;
}
// * * * * * * * * * * * * * * * * * * * * * * * * * * * * * * * * * * * * * //

dimensions      [0 1 -1 0 0 0 0];


internalField   nonuniform List<vector> 
9600
(
(49.7273 0.000282967 0)
(50.2722 -0.00209855 0)
(49.7259 0.000905566 0)
(50.2713 -0.00122441 0)
(49.7266 0.00195491 0)
(50.2703 -0.00124198 0)
(49.7283 0.0020444 0)
(50.2681 -0.0018263 0)
(49.7305 0.00208666 0)
(50.2644 -0.00224733 0)
(49.7333 0.00241583 0)
(50.2594 -0.00250776 0)
(49.7365 0.0028062 0)
(50.2532 -0.00275243 0)
(49.74 0.0031623 0)
(50.2465 -0.00299274 0)
(49.7436 0.0034703 0)
(50.2394 -0.00320501 0)
(49.7463 0.00376171 0)
(50.2319 -0.00337509 0)
(49.7475 0.00402726 0)
(50.2246 -0.0034645 0)
(49.7468 0.00423544 0)
(50.2176 -0.00347862 0)
(49.7436 0.0044389 0)
(50.2112 -0.00346648 0)
(49.7374 0.00466966 0)
(50.2051 -0.00345637 0)
(49.7276 0.00503728 0)
(50.1986 -0.00347958 0)
(49.7136 0.00549594 0)
(50.1907 -0.00358043 0)
(49.6945 0.00616642 0)
(50.18 -0.00379088 0)
(49.6683 0.00695616 0)
(50.1633 -0.00392454 0)
(49.6311 0.00873531 0)
(50.1349 -0.00112141 0)
(49.5752 0.0196547 0)
(50.0872 0.0250454 0)
(49.9421 0.00149676 0)
(50.0511 -0.00435936 0)
(49.9483 0.00248688 0)
(50.0435 -0.00276461 0)
(49.9552 0.00424951 0)
(50.0353 -0.00260128 0)
(49.963 0.00428155 0)
(50.0267 -0.00347754 0)
(49.9712 0.00409378 0)
(50.0173 -0.00402711 0)
(49.9793 0.00438782 0)
(50.007 -0.00416251 0)
(49.9871 0.00477062 0)
(49.9963 -0.00417879 0)
(49.9944 0.00503904 0)
(49.9861 -0.00413969 0)
(50.0008 0.00518709 0)
(49.9766 -0.00402798 0)
(50.0052 0.00528237 0)
(49.9677 -0.00378832 0)
(50.0075 0.00532758 0)
(49.9596 -0.00341324 0)
(50.0076 0.0053429 0)
(49.952 -0.00294095 0)
(50.0054 0.00534272 0)
(49.9447 -0.00234643 0)
(50.0007 0.00538905 0)
(49.937 -0.00170205 0)
(49.9932 0.00557279 0)
(49.9279 -0.00097388 0)
(49.9825 0.00609026 0)
(49.9165 -0.000336224 0)
(49.9678 0.00701495 0)
(49.901 0.000435513 0)
(49.9469 0.00867138 0)
(49.8791 0.00264762 0)
(49.9165 0.0142127 0)
(49.8479 0.0139333 0)
(49.875 0.0405567 0)
(49.8108 0.0674585 0)
(50.0216 0.00238269 0)
(49.975 -0.00406563 0)
(50.0249 0.00294664 0)
(49.971 -0.00296672 0)
(50.0275 0.00417655 0)
(49.9668 -0.00262803 0)
(50.0301 0.00426264 0)
(49.9631 -0.00312888 0)
(50.0327 0.00400653 0)
(49.9593 -0.00346457 0)
(50.0345 0.00405222 0)
(49.9554 -0.00335002 0)
(50.0352 0.00420815 0)
(49.9519 -0.00301876 0)
(50.0348 0.00424872 0)
(49.9492 -0.00259745 0)
(50.0331 0.00418012 0)
(49.9475 -0.0020778 0)
(50.0296 0.00405624 0)
(49.9464 -0.00142487 0)
(50.0242 0.00401502 0)
(49.9457 -0.000765707 0)
(50.0172 0.00402692 0)
(49.9449 2.28367e-05 0)
(50.0087 0.00402304 0)
(49.9435 0.000995657 0)
(49.9989 0.00404196 0)
(49.9406 0.00214393 0)
(49.9875 0.00415105 0)
(49.9353 0.00363443 0)
(49.9739 0.00452324 0)
(49.9266 0.00544202 0)
(49.9573 0.00536777 0)
(49.9133 0.0082664 0)
(49.9355 0.00782948 0)
(49.8937 0.0148914 0)
(49.9065 0.0168808 0)
(49.8673 0.0343404 0)
(49.8715 0.0476886 0)
(49.8395 0.0864094 0)
(50.0305 0.00253505 0)
(49.9691 -0.00339878 0)
(50.0314 0.00270216 0)
(49.9681 -0.00269058 0)
(50.0309 0.00340796 0)
(49.9668 -0.00215839 0)
(50.0305 0.00356162 0)
(49.9659 -0.00215265 0)
(50.03 0.00331836 0)
(49.9651 -0.00216827 0)
(50.0289 0.00312199 0)
(49.9639 -0.00179515 0)
(50.0267 0.00302481 0)
(49.9628 -0.00115304 0)
(50.0238 0.00286385 0)
(49.9621 -0.000407031 0)
(50.0202 0.00261947 0)
(49.9617 0.000439544 0)
(50.0156 0.00239454 0)
(49.961 0.00134602 0)
(50.0099 0.00234486 0)
(49.96 0.00219571 0)
(50.0034 0.00247354 0)
(49.9582 0.00311048 0)
(49.9961 0.00273203 0)
(49.9552 0.00416745 0)
(49.9881 0.00315643 0)
(49.9503 0.00539341 0)
(49.9789 0.00390731 0)
(49.9426 0.00693069 0)
(49.9678 0.00502349 0)
(49.9315 0.00914116 0)
(49.954 0.00704228 0)
(49.9159 0.0130048 0)
(49.9358 0.0117486 0)
(49.8948 0.021882 0)
(49.9123 0.02453 0)
(49.8687 0.0435279 0)
(49.8857 0.0562027 0)
(49.843 0.0898533 0)
(50.0206 0.00207023 0)
(49.9801 -0.00239489 0)
(50.0209 0.00216239 0)
(49.98 -0.00200399 0)
(50.0198 0.0026656 0)
(49.9793 -0.00149959 0)
(50.0187 0.00296821 0)
(49.9789 -0.00129401 0)
(50.0177 0.00292932 0)
(49.9785 -0.00117454 0)
(50.0163 0.00274727 0)
(49.9776 -0.000754103 0)
(50.014 0.0026143 0)
(49.9764 -2.32808e-05 0)
(50.0114 0.00237204 0)
(49.9753 0.000963495 0)
(50.0084 0.00198994 0)
(49.9739 0.00209592 0)
(50.0047 0.00162989 0)
(49.972 0.00330011 0)
(50.0004 0.00139065 0)
(49.9696 0.0045683 0)
(49.9953 0.00137026 0)
(49.9662 0.00587514 0)
(49.9894 0.00159656 0)
(49.9618 0.00731447 0)
(49.9827 0.00212331 0)
(49.9556 0.00890059 0)
(49.9747 0.00316674 0)
(49.9468 0.0107257 0)
(49.9647 0.00505292 0)
(49.935 0.0132742 0)
(49.9518 0.00843994 0)
(49.9194 0.0178987 0)
(49.9351 0.0154698 0)
(49.8992 0.0279195 0)
(49.9142 0.0311655 0)
(49.8757 0.0497144 0)
(49.892 0.0632642 0)
(49.8541 0.0915605 0)
(50.0108 0.00155833 0)
(49.9901 -0.00158323 0)
(50.0111 0.0016339 0)
(49.99 -0.00115648 0)
(50.0101 0.00193883 0)
(49.9893 -0.000630742 0)
(50.0091 0.00214043 0)
(49.9888 -0.000242385 0)
(50.0082 0.00210372 0)
(49.9882 0.000138284 0)
(50.007 0.00187646 0)
(49.9872 0.000721299 0)
(50.0051 0.00164638 0)
(49.9856 0.00159355 0)
(50.0029 0.00136333 0)
(49.9839 0.0027131 0)
(50.0005 0.00100678 0)
(49.9819 0.00394089 0)
(49.9976 0.000765406 0)
(49.9794 0.00518988 0)
(49.9939 0.000753467 0)
(49.9762 0.00643792 0)
(49.9896 0.00103216 0)
(49.9722 0.00770451 0)
(49.9843 0.00170677 0)
(49.9672 0.00898096 0)
(49.978 0.00288199 0)
(49.9608 0.0103838 0)
(49.9701 0.00474279 0)
(49.9521 0.0121455 0)
(49.9602 0.0076947 0)
(49.9406 0.0148185 0)
(49.9476 0.0126123 0)
(49.9259 0.0200069 0)
(49.9316 0.0216914 0)
(49.9075 0.0308318 0)
(49.9126 0.0392227 0)
(49.887 0.0526233 0)
(49.8934 0.0710068 0)
(49.8692 0.091266 0)
(50.005 0.00119608 0)
(49.9959 -0.0011621 0)
(50.0055 0.00129241 0)
(49.9958 -0.000525031 0)
(50.0046 0.00143143 0)
(49.9949 6.84198e-05 0)
(50.0037 0.00142244 0)
(49.9943 0.000657147 0)
(50.0029 0.00128218 0)
(49.9936 0.00136515 0)
(50.0019 0.000996531 0)
(49.9924 0.0022091 0)
(50.0003 0.000632598 0)
(49.9906 0.00330887 0)
(49.9984 0.000301832 0)
(49.9887 0.0045381 0)
(49.9963 4.40454e-05 0)
(49.9864 0.00577672 0)
(49.9937 3.68815e-05 0)
(49.9836 0.00691821 0)
(49.9903 0.000417795 0)
(49.9802 0.0079104 0)
(49.9861 0.00127084 0)
(49.9761 0.00879486 0)
(49.9809 0.00268306 0)
(49.9711 0.00962449 0)
(49.9747 0.00477629 0)
(49.9647 0.0105938 0)
(49.9669 0.00768562 0)
(49.9562 0.0121137 0)
(49.9571 0.0117986 0)
(49.9452 0.0149654 0)
(49.9448 0.018032 0)
(49.9314 0.0208318 0)
(49.9297 0.0284443 0)
(49.9147 0.0326629 0)
(49.9124 0.0466257 0)
(49.8966 0.0548627 0)
(49.8959 0.0770672 0)
(49.8819 0.0913623 0)
(50.0024 0.000528371 0)
(49.9985 -0.000306803 0)
(50.0031 0.000496998 0)
(49.9984 0.000573302 0)
(50.0023 0.000577582 0)
(49.9974 0.00126424 0)
(50.0014 0.000435228 0)
(49.9968 0.00191849 0)
(50.0007 0.000227938 0)
(49.996 0.00278899 0)
(49.9998 5.60586e-05 0)
(49.9947 0.00370986 0)
(49.9983 -0.00016015 0)
(49.9929 0.00472345 0)
(49.9965 -0.0002507 0)
(49.9909 0.00572961 0)
(49.9946 -0.000101398 0)
(49.9885 0.0066034 0)
(49.992 0.000434206 0)
(49.9857 0.00733421 0)
(49.9887 0.00145582 0)
(49.9822 0.00789749 0)
(49.9845 0.00300648 0)
(49.9782 0.008368 0)
(49.9794 0.0051299 0)
(49.9732 0.00890286 0)
(49.9732 0.00789294 0)
(49.967 0.00979616 0)
(49.9654 0.0114573 0)
(49.9587 0.011548 0)
(49.9558 0.0162402 0)
(49.9481 0.0150492 0)
(49.944 0.0231668 0)
(49.9351 0.0219672 0)
(49.9299 0.0341379 0)
(49.9198 0.0350231 0)
(49.9144 0.0521398 0)
(49.9039 0.0577976 0)
(49.9003 0.0806611 0)
(49.8915 0.0928137 0)
(50.0014 -0.000183998 0)
(49.9994 0.000933163 0)
(50.0023 -0.000664842 0)
(49.9993 0.00168098 0)
(50.0015 -0.000476716 0)
(49.9984 0.00257877 0)
(50.0006 -0.000490759 0)
(49.9977 0.00313028 0)
(50.0001 -0.000613111 0)
(49.997 0.00381131 0)
(49.9992 -0.000462075 0)
(49.9957 0.00456383 0)
(49.9977 -0.000248914 0)
(49.9939 0.00523011 0)
(49.996 0.000124261 0)
(49.9919 0.00581086 0)
(49.994 0.000795029 0)
(49.9896 0.00626034 0)
(49.9915 0.00190865 0)
(49.9868 0.00662835 0)
(49.9882 0.00348989 0)
(49.9834 0.00692287 0)
(49.984 0.00554617 0)
(49.9794 0.00726125 0)
(49.9789 0.0080819 0)
(49.9745 0.00787006 0)
(49.9728 0.0111393 0)
(49.9684 0.00913155 0)
(49.9652 0.0148893 0)
(49.9603 0.0115912 0)
(49.9559 0.0197936 0)
(49.9501 0.0161634 0)
(49.9447 0.026815 0)
(49.9378 0.0244082 0)
(49.9317 0.037744 0)
(49.9237 0.0387301 0)
(49.9178 0.0551634 0)
(49.9097 0.0619109 0)
(49.9057 0.081825 0)
(49.8992 0.0954811 0)
(50.0011 -0.000881317 0)
(49.9995 0.00226697 0)
(50.0019 -0.00168535 0)
(49.9996 0.00234273 0)
(50.0013 -0.00128731 0)
(49.9987 0.00334264 0)
(50.0003 -0.000806325 0)
(49.998 0.00366688 0)
(49.9998 -0.000633542 0)
(49.9975 0.00387321 0)
(49.999 -6.59099e-05 0)
(49.9962 0.00433181 0)
(49.9975 0.000699472 0)
(49.9944 0.00466405 0)
(49.9958 0.00152191 0)
(49.9925 0.00492463 0)
(49.9939 0.0026047 0)
(49.9903 0.00518627 0)
(49.9914 0.00404694 0)
(49.9876 0.0054754 0)
(49.9881 0.00586975 0)
(49.9842 0.00585599 0)
(49.984 0.00805024 0)
(49.9803 0.00647455 0)
(49.979 0.010576 0)
(49.9755 0.00758182 0)
(49.973 0.0135134 0)
(49.9694 0.00955632 0)
(49.9657 0.0171041 0)
(49.9615 0.0129414 0)
(49.9568 0.0218983 0)
(49.9517 0.0186356 0)
(49.9463 0.0288672 0)
(49.9401 0.0280747 0)
(49.9343 0.0396859 0)
(49.9272 0.0433161 0)
(49.922 0.0566147 0)
(49.9148 0.0664213 0)
(49.9116 0.081849 0)
(49.9059 0.098215 0)
(50.0009 -0.00129417 0)
(49.9992 0.00306459 0)
(50.0015 -0.00187837 0)
(49.9996 0.00235913 0)
(50.0011 -0.00139545 0)
(49.9988 0.00311823 0)
(50 -0.000209262 0)
(49.9981 0.00325815 0)
(49.9995 0.000312103 0)
(49.9976 0.0030458 0)
(49.9988 0.00114666 0)
(49.9965 0.00332656 0)
(49.9974 0.00228724 0)
(49.9948 0.00360707 0)
(49.9957 0.00332368 0)
(49.9929 0.00381123 0)
(49.9938 0.00451283 0)
(49.9908 0.00417179 0)
(49.9914 0.00597464 0)
(49.9881 0.00472505 0)
(49.9882 0.0076984 0)
(49.9849 0.00551011 0)
(49.9842 0.00967732 0)
(49.981 0.00665361 0)
(49.9793 0.0119784 0)
(49.9762 0.00838693 0)
(49.9736 0.0147272 0)
(49.9703 0.0110787 0)
(49.9666 0.0182076 0)
(49.9626 0.015279 0)
(49.9581 0.0229913 0)
(49.9533 0.0218857 0)
(49.9482 0.0300168 0)
(49.9424 0.032202 0)
(49.9373 0.040862 0)
(49.9306 0.0478777 0)
(49.9263 0.0575634 0)
(49.9196 0.0703827 0)
(49.9174 0.0818812 0)
(49.9123 0.100103 0)
(50.0008 -0.00121166 0)
(49.9989 0.00288859 0)
(50.0008 -0.00113913 0)
(49.9995 0.00163403 0)
(50.0008 -0.000732564 0)
(49.9988 0.0020437 0)
(49.9996 0.00100264 0)
(49.998 0.0023176 0)
(49.9991 0.00181102 0)
(49.9977 0.00192283 0)
(49.9985 0.00258118 0)
(49.9966 0.00219298 0)
(49.9971 0.00380916 0)
(49.9949 0.00275129 0)
(49.9955 0.00482107 0)
(49.9931 0.00320029 0)
(49.9937 0.00580408 0)
(49.9911 0.00387706 0)
(49.9914 0.00705141 0)
(49.9885 0.00487 0)
(49.9883 0.00856367 0)
(49.9853 0.00612916 0)
(49.9844 0.0103307 0)
(49.9815 0.00776227 0)
(49.9798 0.0124817 0)
(49.9768 0.01001 0)
(49.9742 0.0151844 0)
(49.9711 0.0132444 0)
(49.9675 0.0187374 0)
(49.9637 0.0180261 0)
(49.9595 0.0236994 0)
(49.9548 0.0252254 0)
(49.9504 0.0309979 0)
(49.9447 0.0359809 0)
(49.9404 0.0421056 0)
(49.934 0.0516019 0)
(49.9306 0.058838 0)
(49.9244 0.0731442 0)
(49.9229 0.0825804 0)
(49.9185 0.100776 0)
(50.0007 -0.000714938 0)
(49.9987 0.00180861 0)
(50.0001 0.000170882 0)
(49.9993 0.000669543 0)
(50.0004 0.00038073 0)
(49.9989 0.000718022 0)
(49.9993 0.00222064 0)
(49.9979 0.00138925 0)
(49.9985 0.00319481 0)
(49.9975 0.00117343 0)
(49.9981 0.00362898 0)
(49.9966 0.00155626 0)
(49.9969 0.00464974 0)
(49.9949 0.00255909 0)
(49.9952 0.00554686 0)
(49.9931 0.00341791 0)
(49.9936 0.00624133 0)
(49.9912 0.00441927 0)
(49.9914 0.00725702 0)
(49.9886 0.00577489 0)
(49.9884 0.00867932 0)
(49.9855 0.00736027 0)
(49.9846 0.0104422 0)
(49.9818 0.00926341 0)
(49.9801 0.012669 0)
(49.9773 0.0117938 0)
(49.9748 0.0155216 0)
(49.9717 0.0153765 0)
(49.9684 0.0192827 0)
(49.9647 0.0205817 0)
(49.9609 0.024491 0)
(49.9563 0.0281851 0)
(49.9525 0.0321394 0)
(49.947 0.0391026 0)
(49.9434 0.0436434 0)
(49.9374 0.0543517 0)
(49.9347 0.0605592 0)
(49.9291 0.074775 0)
(49.9281 0.0838401 0)
(49.9244 0.100507 0)
(50.0006 -6.01004e-05 0)
(49.9988 0.000483684 0)
(49.9996 0.00145159 0)
(49.9991 -2.20646e-06 0)
(50 0.00145229 0)
(49.9991 -0.000266697 0)
(49.9991 0.0028809 0)
(49.9979 0.000848063 0)
(49.9982 0.00396601 0)
(49.9973 0.00112285 0)
(49.9978 0.00404673 0)
(49.9966 0.0016262 0)
(49.9967 0.00471225 0)
(49.9948 0.00300342 0)
(49.995 0.00556686 0)
(49.993 0.00425313 0)
(49.9934 0.00614021 0)
(49.9911 0.00544639 0)
(49.9913 0.0070657 0)
(49.9887 0.00696754 0)
(49.9884 0.00856463 0)
(49.9857 0.0087077 0)
(49.9847 0.010502 0)
(49.9821 0.0107116 0)
(49.9803 0.0129499 0)
(49.9777 0.0133771 0)
(49.9753 0.0160485 0)
(49.9723 0.0172026 0)
(49.9692 0.0200858 0)
(49.9656 0.0227158 0)
(49.9622 0.0256095 0)
(49.9577 0.0305455 0)
(49.9544 0.0336561 0)
(49.9492 0.0414391 0)
(49.9462 0.0455569 0)
(49.9407 0.0562317 0)
(49.9384 0.0625672 0)
(49.9337 0.0756709 0)
(49.9328 0.0852186 0)
(49.93 0.0999027 0)
(50.0004 0.00049089 0)
(49.9991 -0.000581093 0)
(49.9994 0.00213537 0)
(49.999 -0.000187425 0)
(49.9997 0.00221798 0)
(49.9992 -0.000530483 0)
(49.9991 0.00289377 0)
(49.998 0.000809034 0)
(49.998 0.00404839 0)
(49.9972 0.00168752 0)
(49.9976 0.00399223 0)
(49.9965 0.00228237 0)
(49.9967 0.00431263 0)
(49.9948 0.00381557 0)
(49.995 0.00520118 0)
(49.9929 0.00533196 0)
(49.9933 0.00589269 0)
(49.9911 0.00654843 0)
(49.9913 0.00690901 0)
(49.9888 0.00800138 0)
(49.9884 0.00865655 0)
(49.9858 0.00975093 0)
(49.9848 0.0109061 0)
(49.9823 0.0118083 0)
(49.9805 0.0135676 0)
(49.9781 0.014619 0)
(49.9757 0.0168243 0)
(49.9729 0.01871 0)
(49.97 0.0210722 0)
(49.9665 0.0245109 0)
(49.9635 0.0269305 0)
(49.9592 0.0324509 0)
(49.9562 0.0354073 0)
(49.9514 0.043177 0)
(49.9487 0.0476771 0)
(49.9439 0.0575005 0)
(49.9419 0.0646264 0)
(49.938 0.0761586 0)
(49.9372 0.0864421 0)
(49.9352 0.0992765 0)
(50.0003 0.000792925 0)
(49.9995 -0.00107842 0)
(49.9995 0.00213406 0)
(49.9991 3.76746e-05 0)
(49.9995 0.00249787 0)
(49.9993 -8.58687e-05 0)
(49.9992 0.00249733 0)
(49.9982 0.0011212 0)
(49.9981 0.00362067 0)
(49.9972 0.00253242 0)
(49.9975 0.00374789 0)
(49.9965 0.00321277 0)
(49.9968 0.00384995 0)
(49.9949 0.00463618 0)
(49.9951 0.004835 0)
(49.993 0.0062715 0)
(49.9933 0.00584589 0)
(49.9912 0.00743565 0)
(49.9913 0.00707748 0)
(49.989 0.00869815 0)
(49.9884 0.00907101 0)
(49.9862 0.0104258 0)
(49.9849 0.011598 0)
(49.9827 0.0126228 0)
(49.9808 0.0144104 0)
(49.9786 0.0156437 0)
(49.9762 0.0177669 0)
(49.9736 0.0199809 0)
(49.9709 0.0222202 0)
(49.9675 0.0259924 0)
(49.9647 0.0284269 0)
(49.9607 0.033971 0)
(49.958 0.0372685 0)
(49.9537 0.0445358 0)
(49.9512 0.0497193 0)
(49.9471 0.0585235 0)
(49.9452 0.0663743 0)
(49.942 0.0766131 0)
(49.9413 0.0872387 0)
(49.94 0.0988246 0)
(50.0002 0.000814816 0)
(49.9998 -0.000915844 0)
(49.9997 0.00174013 0)
(49.9993 0.000420061 0)
(49.9995 0.00238125 0)
(49.9993 0.000707859 0)
(49.9993 0.00211922 0)
(49.9985 0.001609 0)
(49.9983 0.00303998 0)
(49.9972 0.00331084 0)
(49.9976 0.00350751 0)
(49.9965 0.00410972 0)
(49.9969 0.00358789 0)
(49.9951 0.00525291 0)
(49.9953 0.0047064 0)
(49.9932 0.0068497 0)
(49.9934 0.00614586 0)
(49.9914 0.00796299 0)
(49.9913 0.00764738 0)
(49.9894 0.00907622 0)
(49.9886 0.00975884 0)
(49.9866 0.0108659 0)
(49.9851 0.0124032 0)
(49.9832 0.0133474 0)
(49.9812 0.015277 0)
(49.9791 0.0166465 0)
(49.9769 0.0187065 0)
(49.9744 0.0211717 0)
(49.9718 0.0233976 0)
(49.9686 0.0272656 0)
(49.966 0.0299935 0)
(49.9623 0.0352035 0)
(49.9598 0.0391486 0)
(49.956 0.0456394 0)
(49.9536 0.0515882 0)
(49.9502 0.0594453 0)
(49.9484 0.0677417 0)
(49.9459 0.0771479 0)
(49.9453 0.0875964 0)
(49.9445 0.0985604 0)
(50.0001 0.00067514 0)
(50 -0.000454808 0)
(49.9999 0.00125379 0)
(49.9995 0.000772893 0)
(49.9995 0.0020766 0)
(49.9993 0.00147868 0)
(49.9994 0.00193849 0)
(49.9987 0.00211923 0)
(49.9985 0.00257883 0)
(49.9974 0.00381163 0)
(49.9976 0.00340821 0)
(49.9966 0.00479258 0)
(49.997 0.00367478 0)
(49.9954 0.00563469 0)
(49.9954 0.0048681 0)
(49.9935 0.00707444 0)
(49.9935 0.00667994 0)
(49.9918 0.00822378 0)
(49.9914 0.00842411 0)
(49.9898 0.00933732 0)
(49.9888 0.0105272 0)
(49.9871 0.0112648 0)
(49.9855 0.0131766 0)
(49.9837 0.0140681 0)
(49.9817 0.0161119 0)
(49.9798 0.0176233 0)
(49.9776 0.0196584 0)
(49.9753 0.0222584 0)
(49.9728 0.0245931 0)
(49.9699 0.0283918 0)
(49.9673 0.0315108 0)
(49.9641 0.0363405 0)
(49.9616 0.0408371 0)
(49.9584 0.0467304 0)
(49.9561 0.0531145 0)
(49.9532 0.060392 0)
(49.9516 0.068737 0)
(49.9496 0.0776846 0)
(49.9493 0.0877064 0)
(49.9488 0.0982638 0)
(50.0001 0.000509273 0)
(50.0001 2.13624e-06 0)
(50 0.000926249 0)
(49.9997 0.000995977 0)
(49.9995 0.00175537 0)
(49.9993 0.00200985 0)
(49.9994 0.00189843 0)
(49.9988 0.00258447 0)
(49.9987 0.00233028 0)
(49.9976 0.00404124 0)
(49.9977 0.00343843 0)
(49.9967 0.00517806 0)
(49.997 0.00406944 0)
(49.9957 0.00580708 0)
(49.9956 0.00529785 0)
(49.994 0.00705837 0)
(49.9936 0.00731702 0)
(49.9922 0.00837698 0)
(49.9915 0.00920473 0)
(49.9902 0.00967992 0)
(49.9891 0.011196 0)
(49.9877 0.0117848 0)
(49.986 0.0137911 0)
(49.9843 0.0148457 0)
(49.9823 0.0168746 0)
(49.9805 0.0185623 0)
(49.9784 0.020647 0)
(49.9763 0.0232109 0)
(49.9739 0.0258359 0)
(49.9713 0.0293622 0)
(49.9688 0.0329617 0)
(49.9659 0.0374096 0)
(49.9635 0.0422848 0)
(49.9608 0.0478719 0)
(49.9586 0.0542662 0)
(49.9563 0.0614092 0)
(49.9548 0.0693771 0)
(49.9533 0.0782132 0)
(49.9531 0.0876438 0)
(49.953 0.0978673 0)
(50 0.000385525 0)
(50.0001 0.000322387 0)
(50 0.000810023 0)
(49.9998 0.00114027 0)
(49.9995 0.00153397 0)
(49.9993 0.00228831 0)
(49.9993 0.00197755 0)
(49.9988 0.00297036 0)
(49.9988 0.00234957 0)
(49.9978 0.0041097 0)
(49.9978 0.00357741 0)
(49.9968 0.00532012 0)
(49.9969 0.00461928 0)
(49.9959 0.00589598 0)
(49.9956 0.00586585 0)
(49.9944 0.00699553 0)
(49.9937 0.00790285 0)
(49.9925 0.00854246 0)
(49.9917 0.00986462 0)
(49.9906 0.0101485 0)
(49.9894 0.011761 0)
(49.9882 0.0124038 0)
(49.9865 0.0143103 0)
(49.985 0.015617 0)
(49.983 0.0176011 0)
(49.9813 0.0194454 0)
(49.9792 0.021636 0)
(49.9774 0.024107 0)
(49.975 0.0270129 0)
(49.9728 0.030302 0)
(49.9702 0.0342309 0)
(49.9678 0.0384765 0)
(49.9655 0.0434916 0)
(49.9631 0.048996 0)
(49.9612 0.0551983 0)
(49.9592 0.0623275 0)
(49.958 0.0698614 0)
(49.9569 0.0785913 0)
(49.9568 0.0875095 0)
(49.9571 0.0973607 0)
(49.9999 0.000311156 0)
(50.0002 0.000488077 0)
(49.9999 0.00080725 0)
(49.9998 0.00128781 0)
(49.9996 0.00140885 0)
(49.9993 0.00240407 0)
(49.9992 0.00208674 0)
(49.9988 0.00322251 0)
(49.9987 0.00259063 0)
(49.998 0.00407578 0)
(49.9978 0.00383445 0)
(49.997 0.00527176 0)
(49.9968 0.00519696 0)
(49.9961 0.00598447 0)
(49.9956 0.00643214 0)
(49.9947 0.00705419 0)
(49.9938 0.00831908 0)
(49.9929 0.00882673 0)
(49.9918 0.0103247 0)
(49.991 0.0107324 0)
(49.9897 0.0122551 0)
(49.9887 0.0130514 0)
(49.987 0.0148432 0)
(49.9857 0.0162826 0)
(49.9836 0.0183602 0)
(49.9821 0.0202107 0)
(49.98 0.0226215 0)
(49.9785 0.0249675 0)
(49.9762 0.0280661 0)
(49.9742 0.0312866 0)
(49.9718 0.0352555 0)
(49.9697 0.0396014 0)
(49.9674 0.0444392 0)
(49.9655 0.0500997 0)
(49.9637 0.0559732 0)
(49.9622 0.0630843 0)
(49.961 0.0703069 0)
(49.9604 0.0787252 0)
(49.9603 0.0874055 0)
(49.9611 0.0966848 0)
(49.9999 0.000273123 0)
(50.0002 0.000565611 0)
(49.9998 0.000819696 0)
(49.9999 0.00144544 0)
(49.9996 0.00137824 0)
(49.9994 0.00244756 0)
(49.9992 0.00219739 0)
(49.9989 0.0033552 0)
(49.9986 0.00294743 0)
(49.9982 0.00403935 0)
(49.9978 0.0041534 0)
(49.9972 0.00516002 0)
(49.9967 0.00568607 0)
(49.9962 0.00612522 0)
(49.9956 0.00691702 0)
(49.995 0.00727033 0)
(49.994 0.00859623 0)
(49.9932 0.00920144 0)
(49.992 0.0106441 0)
(49.9913 0.0113442 0)
(49.99 0.0127235 0)
(49.9892 0.0136933 0)
(49.9875 0.0154097 0)
(49.9864 0.0168722 0)
(49.9843 0.0191076 0)
(49.983 0.0209105 0)
(49.9809 0.0235455 0)
(49.9795 0.0258277 0)
(49.9773 0.0289983 0)
(49.9757 0.0322789 0)
(49.9733 0.0361191 0)
(49.9715 0.0406742 0)
(49.9694 0.0452423 0)
(49.9678 0.0510819 0)
(49.9661 0.056655 0)
(49.9651 0.0636848 0)
(49.964 0.0706823 0)
(49.9638 0.0787059 0)
(49.9637 0.0872434 0)
(49.9649 0.0959242 0)
(49.9998 0.000235267 0)
(50.0002 0.00063586 0)
(49.9998 0.000811099 0)
(49.9999 0.00157373 0)
(49.9995 0.00145518 0)
(49.9995 0.00244839 0)
(49.9991 0.00234527 0)
(49.999 0.00336966 0)
(49.9985 0.00333695 0)
(49.9983 0.00405642 0)
(49.9977 0.00446472 0)
(49.9974 0.00512799 0)
(49.9967 0.00599532 0)
(49.9964 0.0063713 0)
(49.9956 0.00726335 0)
(49.9952 0.00763557 0)
(49.9941 0.00881302 0)
(49.9935 0.00959226 0)
(49.9922 0.0109421 0)
(49.9916 0.0118588 0)
(49.9902 0.0132356 0)
(49.9896 0.0142566 0)
(49.9879 0.0160168 0)
(49.987 0.0174255 0)
(49.9849 0.0197802 0)
(49.9839 0.0216249 0)
(49.9817 0.0243194 0)
(49.9806 0.0267389 0)
(49.9785 0.0297818 0)
(49.9771 0.0332596 0)
(49.9749 0.0368855 0)
(49.9734 0.0416099 0)
(49.9714 0.0460153 0)
(49.9701 0.0518404 0)
(49.9685 0.0573364 0)
(49.9679 0.0640868 0)
(49.9669 0.0710087 0)
(49.9672 0.0785826 0)
(49.967 0.0869568 0)
(49.9686 0.0951782 0)
(49.9998 0.000190903 0)
(50.0002 0.000720599 0)
(49.9998 0.000797844 0)
(50 0.00164375 0)
(49.9995 0.00161056 0)
(49.9996 0.00243332 0)
(49.9991 0.00253586 0)
(49.9991 0.0033126 0)
(49.9985 0.00368104 0)
(49.9985 0.00413911 0)
(49.9977 0.00473867 0)
(49.9976 0.00521844 0)
(49.9967 0.00615077 0)
(49.9965 0.00668542 0)
(49.9956 0.00750299 0)
(49.9954 0.00807499 0)
(49.9943 0.0090321 0)
(49.9939 0.00996289 0)
(49.9924 0.0112612 0)
(49.992 0.0122684 0)
(49.9905 0.013777 0)
(49.9901 0.0147483 0)
(49.9883 0.0166413 0)
(49.9877 0.0179701 0)
(49.9856 0.0203774 0)
(49.9847 0.0223402 0)
(49.9826 0.0249612 0)
(49.9817 0.0276523 0)
(49.9797 0.0304626 0)
(49.9785 0.0341869 0)
(49.9765 0.037592 0)
(49.9752 0.0424035 0)
(49.9733 0.0467512 0)
(49.9724 0.0524095 0)
(49.9709 0.0579807 0)
(49.9707 0.0643298 0)
(49.9697 0.0712775 0)
(49.9704 0.0783667 0)
(49.9703 0.0865759 0)
(49.9721 0.0944165 0)
(49.9997 0.000155928 0)
(50.0003 0.000788158 0)
(49.9997 0.000832072 0)
(50.0001 0.00163266 0)
(49.9994 0.00179541 0)
(49.9997 0.00242964 0)
(49.9991 0.00273622 0)
(49.9993 0.00328197 0)
(49.9984 0.00390407 0)
(49.9986 0.00430743 0)
(49.9977 0.00494312 0)
(49.9978 0.00542275 0)
(49.9968 0.00623471 0)
(49.9967 0.0069878 0)
(49.9957 0.00772793 0)
(49.9956 0.00846903 0)
(49.9944 0.00932857 0)
(49.9942 0.010272 0)
(49.9927 0.0116203 0)
(49.9924 0.0126155 0)
(49.9907 0.0142775 0)
(49.9906 0.0152384 0)
(49.9888 0.0171932 0)
(49.9884 0.0185641 0)
(49.9863 0.0208838 0)
(49.9856 0.0230422 0)
(49.9835 0.0255276 0)
(49.9828 0.0284776 0)
(49.9808 0.0311326 0)
(49.98 0.0349762 0)
(49.978 0.0383006 0)
(49.9771 0.0430377 0)
(49.9752 0.0474374 0)
(49.9747 0.0528486 0)
(49.9732 0.0585094 0)
(49.9734 0.0645008 0)
(49.9724 0.0714143 0)
(49.9735 0.0781193 0)
(49.9734 0.0860891 0)
(49.9755 0.0936233 0)
(49.9997 0.000142633 0)
(50.0003 0.000808462 0)
(49.9996 0.000932082 0)
(50.0002 0.00156383 0)
(49.9993 0.00196387 0)
(49.9998 0.0024495 0)
(49.999 0.00291297 0)
(49.9994 0.00333329 0)
(49.9984 0.0040018 0)
(49.9987 0.00453408 0)
(49.9977 0.00508343 0)
(49.998 0.0056986 0)
(49.9969 0.00631762 0)
(49.997 0.00723749 0)
(49.9958 0.00797571 0)
(49.9958 0.00878135 0)
(49.9945 0.00970796 0)
(49.9946 0.0105266 0)
(49.9929 0.0120121 0)
(49.9929 0.0129301 0)
(49.9911 0.0147187 0)
(49.9911 0.0157419 0)
(49.9892 0.0176507 0)
(49.989 0.0192064 0)
(49.987 0.0213117 0)
(49.9865 0.0237267 0)
(49.9844 0.0260359 0)
(49.9839 0.0291918 0)
(49.9819 0.0318022 0)
(49.9814 0.0356158 0)
(49.9794 0.0390185 0)
(49.979 0.0435187 0)
(49.9771 0.0480722 0)
(49.977 0.0531729 0)
(49.9754 0.0589129 0)
(49.976 0.0646188 0)
(49.975 0.0714051 0)
(49.9765 0.0778683 0)
(49.9764 0.085485 0)
(49.9788 0.092823 0)
(49.9996 0.000157348 0)
(50.0003 0.000778641 0)
(49.9995 0.00106331 0)
(50.0003 0.00151603 0)
(49.9993 0.00206602 0)
(49.9999 0.00251223 0)
(49.9989 0.00303255 0)
(49.9995 0.00346657 0)
(49.9985 0.00403178 0)
(49.9989 0.00474769 0)
(49.9978 0.00521404 0)
(49.9981 0.0059643 0)
(49.997 0.00646921 0)
(49.9972 0.00741413 0)
(49.9959 0.00824859 0)
(49.9961 0.00903226 0)
(49.9947 0.0101029 0)
(49.995 0.0107908 0)
(49.9932 0.01237 0)
(49.9933 0.0132697 0)
(49.9914 0.0150859 0)
(49.9916 0.0162521 0)
(49.9897 0.0180499 0)
(49.9897 0.0198256 0)
(49.9877 0.0217337 0)
(49.9874 0.0243376 0)
(49.9853 0.0265314 0)
(49.985 0.0297872 0)
(49.983 0.0324429 0)
(49.9828 0.0361545 0)
(49.9809 0.0396834 0)
(49.9808 0.0439158 0)
(49.9789 0.0486109 0)
(49.9792 0.0534184 0)
(49.9776 0.059195 0)
(49.9786 0.0646695 0)
(49.9776 0.0712828 0)
(49.9794 0.0775767 0)
(49.9793 0.0848015 0)
(49.982 0.091998 0)
(49.9995 0.000192969 0)
(50.0004 0.000719968 0)
(49.9994 0.00117468 0)
(50.0003 0.00153424 0)
(49.9992 0.00208959 0)
(50 0.00261921 0)
(49.9989 0.00308822 0)
(49.9996 0.00365662 0)
(49.9985 0.00405749 0)
(49.999 0.00490898 0)
(49.9978 0.00536729 0)
(49.9983 0.00616416 0)
(49.9971 0.00671056 0)
(49.9975 0.00752425 0)
(49.996 0.00853642 0)
(49.9964 0.00923989 0)
(49.9948 0.0104688 0)
(49.9953 0.0110967 0)
(49.9935 0.0126604 0)
(49.9938 0.013661 0)
(49.9919 0.0153698 0)
(49.9921 0.0167706 0)
(49.9903 0.0184056 0)
(49.9903 0.02039 0)
(49.9884 0.0221807 0)
(49.9883 0.0248464 0)
(49.9862 0.0270543 0)
(49.9862 0.0302477 0)
(49.9842 0.0330566 0)
(49.9843 0.0366038 0)
(49.9823 0.0402692 0)
(49.9826 0.0442748 0)
(49.9807 0.049015 0)
(49.9813 0.0536321 0)
(49.9798 0.0593322 0)
(49.981 0.0646689 0)
(49.9801 0.071052 0)
(49.9821 0.0772242 0)
(49.9822 0.0840746 0)
(49.985 0.0911159 0)
(49.9995 0.000226201 0)
(50.0005 0.000679067 0)
(49.9994 0.00123005 0)
(50.0004 0.00161926 0)
(49.9992 0.00207935 0)
(50 0.00272937 0)
(49.9989 0.00311934 0)
(49.9997 0.00383866 0)
(49.9985 0.00413289 0)
(49.9992 0.00501173 0)
(49.9978 0.00553884 0)
(49.9985 0.0063038 0)
(49.9971 0.00699365 0)
(49.9978 0.00762727 0)
(49.9961 0.00879879 0)
(49.9967 0.00944004 0)
(49.995 0.0107794 0)
(49.9957 0.0114362 0)
(49.9938 0.0129048 0)
(49.9943 0.0140644 0)
(49.9923 0.0156151 0)
(49.9926 0.0172602 0)
(49.9908 0.0187444 0)
(49.9911 0.0208893 0)
(49.9891 0.0226294 0)
(49.9892 0.025283 0)
(49.9871 0.0275739 0)
(49.9873 0.0306141 0)
(49.9853 0.0336245 0)
(49.9857 0.0369692 0)
(49.9837 0.0407839 0)
(49.9843 0.0445844 0)
(49.9825 0.049306 0)
(49.9834 0.05381 0)
(49.9819 0.0593319 0)
(49.9834 0.0646292 0)
(49.9826 0.0707075 0)
(49.9848 0.0768208 0)
(49.9849 0.0833021 0)
(49.988 0.090175 0)
(49.9994 0.00023828 0)
(50.0006 0.000691874 0)
(49.9993 0.0012182 0)
(50.0004 0.00174324 0)
(49.9992 0.00207864 0)
(50.0001 0.00281793 0)
(49.9988 0.00316737 0)
(49.9997 0.00395554 0)
(49.9985 0.00428277 0)
(49.9993 0.00506082 0)
(49.9978 0.00572539 0)
(49.9987 0.00640346 0)
(49.9971 0.0072627 0)
(49.998 0.00777542 0)
(49.9963 0.00899787 0)
(49.997 0.00966979 0)
(49.9952 0.0110093 0)
(49.996 0.0118015 0)
(49.9942 0.0131234 0)
(49.9947 0.0144437 0)
(49.9927 0.0158645 0)
(49.9932 0.0176752 0)
(49.9913 0.0191034 0)
(49.9918 0.0212997 0)
(49.9898 0.023076 0)
(49.9902 0.0256624 0)
(49.988 0.0280585 0)
(49.9885 0.0309411 0)
(49.9864 0.0341011 0)
(49.9871 0.0372873 0)
(49.9851 0.0412008 0)
(49.986 0.0448493 0)
(49.9842 0.0495067 0)
(49.9855 0.0539281 0)
(49.984 0.0592365 0)
(49.9858 0.0645232 0)
(49.985 0.0702795 0)
(49.9874 0.0763528 0)
(49.9876 0.0824844 0)
(49.9908 0.0891848 0)
(49.9994 0.000231104 0)
(50.0006 0.00074564 0)
(49.9993 0.00117448 0)
(50.0005 0.00185215 0)
(49.9992 0.00211017 0)
(50.0002 0.00288042 0)
(49.9988 0.00324497 0)
(49.9999 0.00401125 0)
(49.9984 0.00447583 0)
(49.9995 0.00509405 0)
(49.9978 0.00591087 0)
(49.9988 0.00648796 0)
(49.9972 0.00748874 0)
(49.9982 0.00796955 0)
(49.9964 0.00914685 0)
(49.9973 0.00992377 0)
(49.9954 0.0111722 0)
(49.9963 0.0121712 0)
(49.9945 0.0133293 0)
(49.9952 0.0147922 0)
(49.9932 0.0161206 0)
(49.9938 0.0180158 0)
(49.9919 0.01948 0)
(49.9925 0.0216256 0)
(49.9905 0.0235181 0)
(49.9911 0.025976 0)
(49.9889 0.0285072 0)
(49.9897 0.0312356 0)
(49.9876 0.0344809 0)
(49.9886 0.0375777 0)
(49.9865 0.0414945 0)
(49.9877 0.0450942 0)
(49.986 0.0496074 0)
(49.9875 0.0539926 0)
(49.9861 0.059067 0)
(49.9881 0.0643276 0)
(49.9873 0.0698092 0)
(49.99 0.0757897 0)
(49.9901 0.0816472 0)
(49.9936 0.0881353 0)
(49.9993 0.000213888 0)
(50.0007 0.000810251 0)
(49.9993 0.00115163 0)
(50.0005 0.0019048 0)
(49.9991 0.00218892 0)
(50.0003 0.00291054 0)
(49.9988 0.00335352 0)
(50 0.00403083 0)
(49.9984 0.00465984 0)
(49.9996 0.00515611 0)
(49.9979 0.0060621 0)
(49.999 0.00659455 0)
(49.9972 0.00765087 0)
(49.9984 0.00819454 0)
(49.9966 0.00927566 0)
(49.9976 0.0101724 0)
(49.9956 0.0113129 0)
(49.9967 0.0125014 0)
(49.9948 0.0135459 0)
(49.9957 0.0150996 0)
(49.9936 0.0163784 0)
(49.9944 0.0182994 0)
(49.9924 0.0198431 0)
(49.9933 0.0219 0)
(49.9912 0.0239267 0)
(49.9921 0.0262378 0)
(49.9899 0.0289087 0)
(49.9909 0.0314962 0)
(49.9887 0.034784 0)
(49.99 0.0378279 0)
(49.9879 0.0416781 0)
(49.9894 0.0453078 0)
(49.9877 0.0496127 0)
(49.9894 0.05401 0)
(49.9881 0.0588272 0)
(49.9903 0.0640464 0)
(49.9896 0.0693059 0)
(49.9925 0.0751271 0)
(49.9926 0.0808015 0)
(49.9962 0.087016 0)
(49.9993 0.000198633 0)
(50.0007 0.000861153 0)
(49.9992 0.00117068 0)
(50.0006 0.00190305 0)
(49.9991 0.00229498 0)
(50.0004 0.00291883 0)
(49.9988 0.00348087 0)
(50.0001 0.00404069 0)
(49.9984 0.00480697 0)
(49.9998 0.00525339 0)
(49.9979 0.00617274 0)
(49.9992 0.00673735 0)
(49.9973 0.00775147 0)
(49.9987 0.00843526 0)
(49.9967 0.00939486 0)